# vtk DataFile Version 2.0

ASCII

DATASET UNSTRUCTURED_GRID
POINTS 729 float
-1.000000e+02 -1.000000e+02 -1.000000e+02
-7.500000e+01 -1.000000e+02 -1.000000e+02
-5.000000e+01 -1.000000e+02 -1.000000e+02
-1.000000e+02 -7.500000e+01 -1.000000e+02
-7.500000e+01 -7.500000e+01 -1.000000e+02
-5.000000e+01 -7.500000e+01 -1.000000e+02
-1.000000e+02 -5.000000e+01 -1.000000e+02
-7.500000e+01 -5.000000e+01 -1.000000e+02
-5.000000e+01 -5.000000e+01 -1.000000e+02
-1.000000e+02 -1.000000e+02 -7.500000e+01
-7.500000e+01 -1.000000e+02 -7.500000e+01
-5.000000e+01 -1.000000e+02 -7.500000e+01
-1.000000e+02 -7.500000e+01 -7.500000e+01
-7.500000e+01 -7.500000e+01 -7.500000e+01
-5.000000e+01 -7.500000e+01 -7.500000e+01
-1.000000e+02 -5.000000e+01 -7.500000e+01
-7.500000e+01 -5.000000e+01 -7.500000e+01
-5.000000e+01 -5.000000e+01 -7.500000e+01
-1.000000e+02 -1.000000e+02 -5.000000e+01
-7.500000e+01 -1.000000e+02 -5.000000e+01
-5.000000e+01 -1.000000e+02 -5.000000e+01
-1.000000e+02 -7.500000e+01 -5.000000e+01
-7.500000e+01 -7.500000e+01 -5.000000e+01
-5.000000e+01 -7.500000e+01 -5.000000e+01
-1.000000e+02 -5.000000e+01 -5.000000e+01
-7.500000e+01 -5.000000e+01 -5.000000e+01
-5.000000e+01 -5.000000e+01 -5.000000e+01
-2.500000e+01 -1.000000e+02 -1.000000e+02
0.000000e+00 -1.000000e+02 -1.000000e+02
-2.500000e+01 -7.500000e+01 -1.000000e+02
0.000000e+00 -7.500000e+01 -1.000000e+02
-2.500000e+01 -5.000000e+01 -1.000000e+02
0.000000e+00 -5.000000e+01 -1.000000e+02
-2.500000e+01 -1.000000e+02 -7.500000e+01
0.000000e+00 -1.000000e+02 -7.500000e+01
-2.500000e+01 -7.500000e+01 -7.500000e+01
0.000000e+00 -7.500000e+01 -7.500000e+01
-2.500000e+01 -5.000000e+01 -7.500000e+01
0.000000e+00 -5.000000e+01 -7.500000e+01
-2.500000e+01 -1.000000e+02 -5.000000e+01
0.000000e+00 -1.000000e+02 -5.000000e+01
-2.500000e+01 -7.500000e+01 -5.000000e+01
0.000000e+00 -7.500000e+01 -5.000000e+01
-2.500000e+01 -5.000000e+01 -5.000000e+01
0.000000e+00 -5.000000e+01 -5.000000e+01
-5.000000e+01 -2.500000e+01 -1.000000e+02
-2.500000e+01 -2.500000e+01 -1.000000e+02
0.000000e+00 -2.500000e+01 -1.000000e+02
-5.000000e+01 0.000000e+00 -1.000000e+02
-2.500000e+01 0.000000e+00 -1.000000e+02
0.000000e+00 0.000000e+00 -1.000000e+02
-5.000000e+01 -2.500000e+01 -7.500000e+01
-2.500000e+01 -2.500000e+01 -7.500000e+01
0.000000e+00 -2.500000e+01 -7.500000e+01
-5.000000e+01 0.000000e+00 -7.500000e+01
-2.500000e+01 0.000000e+00 -7.500000e+01
0.000000e+00 0.000000e+00 -7.500000e+01
-5.000000e+01 -2.500000e+01 -5.000000e+01
-2.500000e+01 -2.500000e+01 -5.000000e+01
0.000000e+00 -2.500000e+01 -5.000000e+01
-5.000000e+01 0.000000e+00 -5.000000e+01
-2.500000e+01 0.000000e+00 -5.000000e+01
0.000000e+00 0.000000e+00 -5.000000e+01
-1.000000e+02 -2.500000e+01 -1.000000e+02
-7.500000e+01 -2.500000e+01 -1.000000e+02
-1.000000e+02 0.000000e+00 -1.000000e+02
-7.500000e+01 0.000000e+00 -1.000000e+02
-1.000000e+02 -2.500000e+01 -7.500000e+01
-7.500000e+01 -2.500000e+01 -7.500000e+01
-1.000000e+02 0.000000e+00 -7.500000e+01
-7.500000e+01 0.000000e+00 -7.500000e+01
-1.000000e+02 -2.500000e+01 -5.000000e+01
-7.500000e+01 -2.500000e+01 -5.000000e+01
-1.000000e+02 0.000000e+00 -5.000000e+01
-7.500000e+01 0.000000e+00 -5.000000e+01
-1.000000e+02 -1.000000e+02 -2.500000e+01
-7.500000e+01 -1.000000e+02 -2.500000e+01
-5.000000e+01 -1.000000e+02 -2.500000e+01
-1.000000e+02 -7.500000e+01 -2.500000e+01
-7.500000e+01 -7.500000e+01 -2.500000e+01
-5.000000e+01 -7.500000e+01 -2.500000e+01
-1.000000e+02 -5.000000e+01 -2.500000e+01
-7.500000e+01 -5.000000e+01 -2.500000e+01
-5.000000e+01 -5.000000e+01 -2.500000e+01
-1.000000e+02 -1.000000e+02 0.000000e+00
-7.500000e+01 -1.000000e+02 0.000000e+00
-5.000000e+01 -1.000000e+02 0.000000e+00
-1.000000e+02 -7.500000e+01 0.000000e+00
-7.500000e+01 -7.500000e+01 0.000000e+00
-5.000000e+01 -7.500000e+01 0.000000e+00
-1.000000e+02 -5.000000e+01 0.000000e+00
-7.500000e+01 -5.000000e+01 0.000000e+00
-5.000000e+01 -5.000000e+01 0.000000e+00
-2.500000e+01 -1.000000e+02 -2.500000e+01
0.000000e+00 -1.000000e+02 -2.500000e+01
-2.500000e+01 -7.500000e+01 -2.500000e+01
0.000000e+00 -7.500000e+01 -2.500000e+01
-2.500000e+01 -5.000000e+01 -2.500000e+01
0.000000e+00 -5.000000e+01 -2.500000e+01
-2.500000e+01 -1.000000e+02 0.000000e+00
0.000000e+00 -1.000000e+02 0.000000e+00
-2.500000e+01 -7.500000e+01 0.000000e+00
0.000000e+00 -7.500000e+01 0.000000e+00
-2.500000e+01 -5.000000e+01 0.000000e+00
0.000000e+00 -5.000000e+01 0.000000e+00
-5.000000e+01 -2.500000e+01 -2.500000e+01
-2.500000e+01 -2.500000e+01 -2.500000e+01
0.000000e+00 -2.500000e+01 -2.500000e+01
-5.000000e+01 0.000000e+00 -2.500000e+01
-2.500000e+01 0.000000e+00 -2.500000e+01
0.000000e+00 0.000000e+00 -2.500000e+01
-5.000000e+01 -2.500000e+01 0.000000e+00
-2.500000e+01 -2.500000e+01 0.000000e+00
0.000000e+00 -2.500000e+01 0.000000e+00
-5.000000e+01 0.000000e+00 0.000000e+00
-2.500000e+01 0.000000e+00 0.000000e+00
0.000000e+00 0.000000e+00 0.000000e+00
-1.000000e+02 -2.500000e+01 -2.500000e+01
-7.500000e+01 -2.500000e+01 -2.500000e+01
-1.000000e+02 0.000000e+00 -2.500000e+01
-7.500000e+01 0.000000e+00 -2.500000e+01
-1.000000e+02 -2.500000e+01 0.000000e+00
-7.500000e+01 -2.500000e+01 0.000000e+00
-1.000000e+02 0.000000e+00 0.000000e+00
-7.500000e+01 0.000000e+00 0.000000e+00
2.500000e+01 -1.000000e+02 -1.000000e+02
5.000000e+01 -1.000000e+02 -1.000000e+02
2.500000e+01 -7.500000e+01 -1.000000e+02
5.000000e+01 -7.500000e+01 -1.000000e+02
2.500000e+01 -5.000000e+01 -1.000000e+02
5.000000e+01 -5.000000e+01 -1.000000e+02
2.500000e+01 -1.000000e+02 -7.500000e+01
5.000000e+01 -1.000000e+02 -7.500000e+01
2.500000e+01 -7.500000e+01 -7.500000e+01
5.000000e+01 -7.500000e+01 -7.500000e+01
2.500000e+01 -5.000000e+01 -7.500000e+01
5.000000e+01 -5.000000e+01 -7.500000e+01
2.500000e+01 -1.000000e+02 -5.000000e+01
5.000000e+01 -1.000000e+02 -5.000000e+01
2.500000e+01 -7.500000e+01 -5.000000e+01
5.000000e+01 -7.500000e+01 -5.000000e+01
2.500000e+01 -5.000000e+01 -5.000000e+01
5.000000e+01 -5.000000e+01 -5.000000e+01
7.500000e+01 -1.000000e+02 -1.000000e+02
1.000000e+02 -1.000000e+02 -1.000000e+02
7.500000e+01 -7.500000e+01 -1.000000e+02
1.000000e+02 -7.500000e+01 -1.000000e+02
7.500000e+01 -5.000000e+01 -1.000000e+02
1.000000e+02 -5.000000e+01 -1.000000e+02
7.500000e+01 -1.000000e+02 -7.500000e+01
1.000000e+02 -1.000000e+02 -7.500000e+01
7.500000e+01 -7.500000e+01 -7.500000e+01
1.000000e+02 -7.500000e+01 -7.500000e+01
7.500000e+01 -5.000000e+01 -7.500000e+01
1.000000e+02 -5.000000e+01 -7.500000e+01
7.500000e+01 -1.000000e+02 -5.000000e+01
1.000000e+02 -1.000000e+02 -5.000000e+01
7.500000e+01 -7.500000e+01 -5.000000e+01
1.000000e+02 -7.500000e+01 -5.000000e+01
7.500000e+01 -5.000000e+01 -5.000000e+01
1.000000e+02 -5.000000e+01 -5.000000e+01
5.000000e+01 -2.500000e+01 -1.000000e+02
7.500000e+01 -2.500000e+01 -1.000000e+02
1.000000e+02 -2.500000e+01 -1.000000e+02
5.000000e+01 0.000000e+00 -1.000000e+02
7.500000e+01 0.000000e+00 -1.000000e+02
1.000000e+02 0.000000e+00 -1.000000e+02
5.000000e+01 -2.500000e+01 -7.500000e+01
7.500000e+01 -2.500000e+01 -7.500000e+01
1.000000e+02 -2.500000e+01 -7.500000e+01
5.000000e+01 0.000000e+00 -7.500000e+01
7.500000e+01 0.000000e+00 -7.500000e+01
1.000000e+02 0.000000e+00 -7.500000e+01
5.000000e+01 -2.500000e+01 -5.000000e+01
7.500000e+01 -2.500000e+01 -5.000000e+01
1.000000e+02 -2.500000e+01 -5.000000e+01
5.000000e+01 0.000000e+00 -5.000000e+01
7.500000e+01 0.000000e+00 -5.000000e+01
1.000000e+02 0.000000e+00 -5.000000e+01
2.500000e+01 -2.500000e+01 -1.000000e+02
2.500000e+01 0.000000e+00 -1.000000e+02
2.500000e+01 -2.500000e+01 -7.500000e+01
2.500000e+01 0.000000e+00 -7.500000e+01
2.500000e+01 -2.500000e+01 -5.000000e+01
2.500000e+01 0.000000e+00 -5.000000e+01
2.500000e+01 -1.000000e+02 -2.500000e+01
5.000000e+01 -1.000000e+02 -2.500000e+01
2.500000e+01 -7.500000e+01 -2.500000e+01
5.000000e+01 -7.500000e+01 -2.500000e+01
2.500000e+01 -5.000000e+01 -2.500000e+01
5.000000e+01 -5.000000e+01 -2.500000e+01
2.500000e+01 -1.000000e+02 0.000000e+00
5.000000e+01 -1.000000e+02 0.000000e+00
2.500000e+01 -7.500000e+01 0.000000e+00
5.000000e+01 -7.500000e+01 0.000000e+00
2.500000e+01 -5.000000e+01 0.000000e+00
5.000000e+01 -5.000000e+01 0.000000e+00
7.500000e+01 -1.000000e+02 -2.500000e+01
1.000000e+02 -1.000000e+02 -2.500000e+01
7.500000e+01 -7.500000e+01 -2.500000e+01
1.000000e+02 -7.500000e+01 -2.500000e+01
7.500000e+01 -5.000000e+01 -2.500000e+01
1.000000e+02 -5.000000e+01 -2.500000e+01
7.500000e+01 -1.000000e+02 0.000000e+00
1.000000e+02 -1.000000e+02 0.000000e+00
7.500000e+01 -7.500000e+01 0.000000e+00
1.000000e+02 -7.500000e+01 0.000000e+00
7.500000e+01 -5.000000e+01 0.000000e+00
1.000000e+02 -5.000000e+01 0.000000e+00
5.000000e+01 -2.500000e+01 -2.500000e+01
7.500000e+01 -2.500000e+01 -2.500000e+01
1.000000e+02 -2.500000e+01 -2.500000e+01
5.000000e+01 0.000000e+00 -2.500000e+01
7.500000e+01 0.000000e+00 -2.500000e+01
1.000000e+02 0.000000e+00 -2.500000e+01
5.000000e+01 -2.500000e+01 0.000000e+00
7.500000e+01 -2.500000e+01 0.000000e+00
1.000000e+02 -2.500000e+01 0.000000e+00
5.000000e+01 0.000000e+00 0.000000e+00
7.500000e+01 0.000000e+00 0.000000e+00
1.000000e+02 0.000000e+00 0.000000e+00
2.500000e+01 -2.500000e+01 -2.500000e+01
2.500000e+01 0.000000e+00 -2.500000e+01
2.500000e+01 -2.500000e+01 0.000000e+00
2.500000e+01 0.000000e+00 0.000000e+00
0.000000e+00 2.500000e+01 -1.000000e+02
2.500000e+01 2.500000e+01 -1.000000e+02
5.000000e+01 2.500000e+01 -1.000000e+02
0.000000e+00 5.000000e+01 -1.000000e+02
2.500000e+01 5.000000e+01 -1.000000e+02
5.000000e+01 5.000000e+01 -1.000000e+02
0.000000e+00 2.500000e+01 -7.500000e+01
2.500000e+01 2.500000e+01 -7.500000e+01
5.000000e+01 2.500000e+01 -7.500000e+01
0.000000e+00 5.000000e+01 -7.500000e+01
2.500000e+01 5.000000e+01 -7.500000e+01
5.000000e+01 5.000000e+01 -7.500000e+01
0.000000e+00 2.500000e+01 -5.000000e+01
2.500000e+01 2.500000e+01 -5.000000e+01
5.000000e+01 2.500000e+01 -5.000000e+01
0.000000e+00 5.000000e+01 -5.000000e+01
2.500000e+01 5.000000e+01 -5.000000e+01
[...]
POINT_DATA 729
SCALARS Solution float 1
LOOKUP_TABLE default
-6.324040e-322
-3.162020e-322
-4.440892e-15
-3.162020e-322
0.000000e+00
0.000000e+00
1.821671e-317
-3.552714e-15
-1.821671e-317
0.000000e+00
0.000000e+00
0.000000e+00
0.000000e+00
-1.548385e-306
0.000000e+00
0.000000e+00
0.000000e+00
0.000000e+00
1.776357e-14
0.000000e+00
3.552714e-15
-1.776357e-15
0.000000e+00
0.000000e+00
4.440892e-15
0.000000e+00
0.000000e+00
-2.664535e-15
0.000000e+00
-1.776357e-15
1.776357e-15
0.000000e+00
0.000000e+00
0.000000e+00
0.000000e+00
1.530931e+01
1.530931e+01
1.530931e+01
-3.552714e-15
3.552714e-15
-nan
3.061862e+01
-nan
3.061862e+01
-1.776357e-15
-1.821671e-317
0.000000e+00
0.000000e+00
-nan
-nan
-nan
0.000000e+00
2.296397e+01
3.061862e+01
-nan
-nan
-nan
-7.105427e-15
1.530931e+01
0.000000e+00
-7.105427e-15
-3.552714e-15
-3.552714e-15
1.821671e-317
-1.776357e-15
-2.602085e-15
-3.552714e-15
0.000000e+00
1.526515e+01
0.000000e+00
3.061862e+01
-3.552714e-15
3.053029e+01
-1.110223e-16
6.123724e+01
-1.776357e-15
0.000000e+00
0.000000e+00
0.000000e+00
2.296397e+01
4.592793e+01
4.440892e-15
3.061862e+01
6.123724e+01
-8.881784e-16
0.000000e+00
0.000000e+00
0.000000e+00
1.530931e+01
3.061862e+01
-1.613717e-299
0.000000e+00
1.613717e-299
0.000000e+00
-nan
3.827328e+01
-nan
4.592793e+01
0.000000e+00
0.000000e+00
-nan
1.530931e+01
-nan
0.000000e+00
2.289835e-16
4.592793e+01
4.592793e+01
3.061862e+01
3.061862e+01
3.061862e+01
3.061862e+01
5.379056e-300
1.530931e+01
3.061862e+01
-8.526513e-14
0.000000e+00
-7.105427e-15
0.000000e+00
3.828293e+01
0.000000e+00
4.592793e+01
-5.379056e-300
0.000000e+00
-1.235587e+01
0.000000e+00
8.441299e-268
2.420954e-283
-8.881784e-16
-2.151959e-283
-1.688260e-267
0.000000e+00
0.000000e+00
-2.151959e-283
7.654655e+00
1.688260e-267
0.000000e+00
-1.776357e-15
-nan
0.000000e+00
-nan
3.376520e-267
8.881784e-16
0.000000e+00
0.000000e+00
2.689949e-284
0.000000e+00
-1.882964e-283
0.000000e+00
-2.420954e-283
0.000000e+00
-1.882964e-283
-1.916382e-268
-2.689949e-284
-3.832765e-268
2.958944e-283
1.075980e-283
3.228464e-283
-3.832765e-268
-4.303919e-283
-7.665530e-268
6.455353e-283
-1.688260e-267
0.000000e+00
-8.069848e-284
-1.330641e-311
0.000000e+00
-1.330641e-311
0.000000e+00
-1.916382e-268
8.069848e-284
2.661635e-311
0.000000e+00
-4.940656e-324
2.664535e-15
-3.832765e-268
0.000000e+00
0.000000e+00
0.000000e+00
-2.775558e-17
0.000000e+00
-nan
1.530931e+01
-nan
0.000000e+00
-nan
-nan
0.000000e+00
-nan
3.377426e-267
0.000000e+00
-8.881784e-16
-nan
5.379898e-283
-nan
3.378333e-267
4.996004e-16
1.124101e-15
0.000000e+00
-1.075980e-283
6.529449e-268
1.075980e-283
1.305890e-267
-2.151959e-283
-5.379898e-284
-2.151959e-283
1.689166e-267
1.075980e-283
1.689166e-267
0.000000e+00
0.000000e+00
2.020443e-267
0.000000e+00
-1.387779e-17
0.000000e+00
-6.938894e-18
2.664535e-15
0.000000e+00
0.000000e+00
0.000000e+00
0.000000e+00
0.000000e+00
1.526515e+01
-nan
1.530931e+01
-nan
-nan
-nan
2.232949e-267
-nan
-nan
-nan
-nan
-nan
0.000000e+00
-nan
-nan
-nan
1.776357e-15
-nan
-1.387779e-17
0.000000e+00
-nan
-nan
0.000000e+00
0.000000e+00
0.000000e+00
0.000000e+00
5.408471e-02
0.000000e+00
-5.317171e-311
-4.940656e-324
0.000000e+00
-1.387779e-17
0.000000e+00
-2.081668e-17
-nan
0.000000e+00
0.000000e+00
-nan
0.000000e+00
0.000000e+00
-nan
-3.994330e-311
0.000000e+00
-nan
0.000000e+00
-1.482197e-323
-nan
0.000000e+00
-2.775558e-17
-nan
0.000000e+00
3.469447e-17
-nan
-nan
-nan
-nan
-nan
-nan
-nan
-nan
0.000000e+00
-nan
-1.387779e-17
-nan
1.530931e+01
-nan
7.205790e-02
2.081668e-17
-nan
-nan
0.000000e+00
-nan
1.441158e-01
0.000000e+00
-nan
-nan
7.205797e-02
0.000000e+00
7.205805e-02
-2.081668e-17
1.441159e-01
-1.776357e-15
1.441161e-01
0.000000e+00
-nan
7.205469e-02
0.000000e+00
-nan
0.000000e+00
-2.081668e-17
-nan
1.441094e-01
0.000000e+00
-nan
1.776357e-15
0.000000e+00
0.000000e+00
-nan
2.081668e-17
-nan
0.000000e+00
-nan
0.000000e+00
-nan
-8.257284e-16
-1.776357e-15
-nan
-nan
-nan
-nan
0.000000e+00
1.533713e+01
-nan
-nan
-nan
-nan
-8.881784e-16
3.060220e+01
0.000000e+00
6.938894e-18
1.441111e-01
0.000000e+00
-nan
-nan
-nan
-nan
7.205162e-02
1.441032e-01
-nan
-nan
-nan
-nan
-nan
-nan
-nan
-nan
0.000000e+00
7.205162e-02
-7.145256e-63
0.000000e+00
-nan
-nan
-nan
-nan
-nan
-nan
-nan
-nan
0.000000e+00
7.205556e-02
6.938894e-18
2.081668e-17
0.000000e+00
2.303767e+01
1.545343e+01
0.000000e+00
5.562901e-02
1.441091e-01
3.602599e-02
0.000000e+00
1.441351e-01
0.000000e+00
0.000000e+00
-7.105427e-15
1.547149e+01
1.441062e-01
7.206756e-02
-1.136868e-13
7.205454e-02
1.261436e-01
0.000000e+00
0.000000e+00
0.000000e+00
0.000000e+00
0.000000e+00
-8.526513e-14
0.000000e+00
2.781450e-02
0.000000e+00
0.000000e+00
0.000000e+00
0.000000e+00
3.552714e-15
1.776357e-15
0.000000e+00
0.000000e+00
0.000000e+00
0.000000e+00
7.654655e+00
1.530931e+01
-1.326247e-315
0.000000e+00
1.326247e-315
0.000000e+00
0.000000e+00
0.000000e+00
0.000000e+00
3.833508e-313
6.952193e-313
1.753173e-307
0.000000e+00
-1.753173e-307
0.000000e+00
-nan
7.654655e+00
-nan
0.000000e+00
0.000000e+00
0.000000e+00
-nan
0.000000e+00
-nan
-1.110223e-16
-nan
0.000000e+00
7.654655e+00
1.530931e+01
0.000000e+00
0.000000e+00
-5.684342e-14
-9.881313e-323
0.000000e+00
-nan
-5.329071e-15
0.000000e+00
-1.776357e-15
0.000000e+00
6.947389e+278
3.603378e-02
1.389478e+279
9.881313e-323
1.389478e+279
-1.246397e+01
2.778956e+279
0.000000e+00
0.000000e+00
0.000000e+00
4.940656e-324
1.916743e-313
0.000000e+00
1.185758e-322
0.000000e+00
-1.185758e-322
1.976263e-323
9.881313e-324
0.000000e+00
-9.881313e-324
-4.940656e-324
-6.952193e-313
1.753173e-307
0.000000e+00
-1.753173e-307
0.000000e+00
-nan
-3.061862e-01
-nan
-6.123724e-01
-nan
0.000000e+00
-nan
0.000000e+00
-nan
-1.110223e-16
-nan
0.000000e+00
-3.061862e-01
-nan
-3.552714e-15
0.000000e+00
-3.552714e-15
-9.881313e-323
0.000000e+00
-nan
-1.243450e-14
0.000000e+00
-8.881784e-15
0.000000e+00
6.947389e+278
0.000000e+00
1.389478e+279
9.881313e-323
0.000000e+00
-1.246397e+01
0.000000e+00
-nan
3.227939e-283
-nan
-5.437819e-268
7.206756e-02
2.317591e-15
-nan
-nan
-nan
-nan
-nan
-nan
5.379898e-284
4.303919e-283
-2.718909e-268
0.000000e+00
0.000000e+00
6.938894e-18
-nan
-nan
-nan
-nan
-nan
-nan
7.206505e-02
3.603253e-02
0.000000e+00
1.441301e-01
7.206505e-02
-1.776357e-15
-nan
-nan
-nan
-3.552714e-15
0.000000e+00
0.000000e+00
7.682776e+00
-nan
-nan
0.000000e+00
-nan
-nan
-nan
-nan
-nan
-nan
-nan
-nan
-nan
-nan
-nan
-nan
-nan
-nan
-nan
-nan
-nan
-nan
-nan
-nan
-nan
-nan
-nan
-nan
-nan
-nan
-nan
-3.552714e-15
0.000000e+00
-1.776357e-15
-nan
-nan
-nan
-3.552714e-15
0.000000e+00
-3.552714e-15
-nan
0.000000e+00
-nan
0.000000e+00
-3.311862e+02
-nan
-2.478376e+01
-6.623724e+02
-nan
-nan
-5.000000e+01
-6.505085e+182
-4.985577e+01
-1.000000e+02
-1.301017e+183
-2.366513e-02
-1.235585e+01
0.000000e+00
-2.492794e+01
1.776357e-15
-2.492789e+01
-7.105427e-15
-5.000000e+01
0.000000e+00
-nan
-1.242795e+01
0.000000e+00
-nan
0.000000e+00
1.776357e-15
-4.394537e-02
-2.500000e+01
0.000000e+00
-2.366513e-02
0.000000e+00
3.552714e-15
-3.311141e+02
-nan
0.000000e+00
-nan
-4.985577e+01
-6.505085e+182
-7.105427e-15
0.000000e+00
-2.500000e+01
-3.252543e+182
-2.492789e+01
-5.000000e+01
-6.505085e+182
-7.888377e-03
0.000000e+00
0.000000e+00
-7.105427e-15
2.131628e-14
0.000000e+00
-9.577912e-02
-1.246394e+01
0.000000e+00
-2.500000e+01
-1.776357e-15
0.000000e+00
-7.105427e-15
0.000000e+00
-3.552714e-15
0.000000e+00
-1.250000e+01
0.000000e+00
-7.888377e-03
0.000000e+00
-1.776357e-15
-4.394537e-02
-3.552714e-15
0.000000e+00
-9.577912e-02
0.000000e+00
0.000000e+00
-2.501578e+01
-3.252543e+182
-3.552714e-15
0.000000e+00
3.552714e-15
0.000000e+00
-7.105427e-15
0.000000e+00
0.000000e+00
6.947389e+278
-2.485588e+01
0.000000e+00
-2.485590e+01
-4.985590e+01
3.602838e-02
1.389478e+279
-5.000000e+01
3.552714e-15
-4.985590e+01
-1.000000e+02
-1.779750e+02
-3.560421e+02
-5.001626e+01
-9.985590e+01
-2.494415e+01
-1.779931e+02
0.000000e+00
0.000000e+00
-4.985577e+01
-4.978372e+01
3.552714e-15
-7.105427e-15
0.000000e+00
-1.243605e+01
0.000000e+00
0.000000e+00
0.000000e+00
-2.485583e+01
0.000000e+00
-1.065814e-14
0.000000e+00
6.947389e+278
-2.492794e+01
0.000000e+00
-2.494420e+01
-4.985589e+01
3.602838e-02
0.000000e+00
-7.105427e-15
3.552714e-15
-7.105427e-15
0.000000e+00
-2.497210e+01
-4.985589e+01
0.000000e+00
-7.105427e-15
-2.485583e+01
-2.489978e+01
0.000000e+00
0.000000e+00
0.000000e+00
0.000000e+00
3.552714e-15
-7.105427e-15
0.000000e+00
-1.238184e+01
0.000000e+00
0.000000e+00
0.000000e+00
0.000000e+00
0.000000e+00
-1.065814e-14
