# vtk DataFile Version 2.0

ASCII

DATASET UNSTRUCTURED_GRID
POINTS 27 float
-1.000000e+02 -1.000000e+02 -1.000000e+02
0.000000e+00 -1.000000e+02 -1.000000e+02
-1.000000e+02 0.000000e+00 -1.000000e+02
0.000000e+00 0.000000e+00 -1.000000e+02
-1.000000e+02 -1.000000e+02 0.000000e+00
0.000000e+00 -1.000000e+02 0.000000e+00
-1.000000e+02 0.000000e+00 0.000000e+00
0.000000e+00 0.000000e+00 0.000000e+00
1.000000e+02 -1.000000e+02 -1.000000e+02
1.000000e+02 0.000000e+00 -1.000000e+02
1.000000e+02 -1.000000e+02 0.000000e+00
1.000000e+02 0.000000e+00 0.000000e+00
0.000000e+00 1.000000e+02 -1.000000e+02
1.000000e+02 1.000000e+02 -1.000000e+02
0.000000e+00 1.000000e+02 0.000000e+00
1.000000e+02 1.000000e+02 0.000000e+00
-1.000000e+02 1.000000e+02 -1.000000e+02
-1.000000e+02 1.000000e+02 0.000000e+00
-1.000000e+02 -1.000000e+02 1.000000e+02
0.000000e+00 -1.000000e+02 1.000000e+02
-1.000000e+02 0.000000e+00 1.000000e+02
0.000000e+00 0.000000e+00 1.000000e+02
1.000000e+02 -1.000000e+02 1.000000e+02
1.000000e+02 0.000000e+00 1.000000e+02
0.000000e+00 1.000000e+02 1.000000e+02
1.000000e+02 1.000000e+02 1.000000e+02
-1.000000e+02 1.000000e+02 1.000000e+02

CELLS 8 72
8 0 1 3 2 4 5 7 6
8 1 8 9 3 5 10 11 7
8 3 9 13 12 7 11 15 14
8 2 3 12 16 6 7 14 17
8 4 5 7 6 18 19 21 20
8 5 10 11 7 19 22 23 21
8 7 11 15 14 21 23 25 24
8 6 7 14 17 20 21 24 26

CELL_TYPES 8
12
12
12
12
12
12
12
12

POINT_DATA 27
SCALARS Solution float 1
LOOKUP_TABLE default
0.000000e+00
0.000000e+00
0.000000e+00
0.000000e+00
0.000000e+00
0.000000e+00
0.000000e+00
7.348469e-01
0.000000e+00
0.000000e+00
0.000000e+00
0.000000e+00
0.000000e+00
0.000000e+00
0.000000e+00
0.000000e+00
0.000000e+00
0.000000e+00
0.000000e+00
0.000000e+00
0.000000e+00
0.000000e+00
0.000000e+00
0.000000e+00
0.000000e+00
0.000000e+00
0.000000e+00
