# vtk DataFile Version 2.0

ASCII

DATASET UNSTRUCTURED_GRID
POINTS 9663 float
0.000000e+00 -1.000000e+02 0.000000e+00
2.500000e+01 -1.000000e+02 0.000000e+00
0.000000e+00 -7.500000e+01 0.000000e+00
2.500000e+01 -7.500000e+01 0.000000e+00
0.000000e+00 -1.000000e+02 2.500000e+01
2.500000e+01 -1.000000e+02 2.500000e+01
0.000000e+00 -7.500000e+01 2.500000e+01
2.500000e+01 -7.500000e+01 2.500000e+01
5.000000e+01 -1.000000e+02 0.000000e+00
5.000000e+01 -7.500000e+01 0.000000e+00
5.000000e+01 -1.000000e+02 2.500000e+01
5.000000e+01 -7.500000e+01 2.500000e+01
2.500000e+01 -5.000000e+01 0.000000e+00
5.000000e+01 -5.000000e+01 0.000000e+00
2.500000e+01 -5.000000e+01 2.500000e+01
5.000000e+01 -5.000000e+01 2.500000e+01
0.000000e+00 -5.000000e+01 0.000000e+00
0.000000e+00 -5.000000e+01 2.500000e+01
0.000000e+00 -1.000000e+02 5.000000e+01
2.500000e+01 -1.000000e+02 5.000000e+01
0.000000e+00 -7.500000e+01 5.000000e+01
2.500000e+01 -7.500000e+01 5.000000e+01
5.000000e+01 -1.000000e+02 5.000000e+01
5.000000e+01 -7.500000e+01 5.000000e+01
2.500000e+01 -5.000000e+01 5.000000e+01
5.000000e+01 -5.000000e+01 5.000000e+01
0.000000e+00 -5.000000e+01 5.000000e+01
7.500000e+01 -1.000000e+02 0.000000e+00
7.500000e+01 -7.500000e+01 0.000000e+00
7.500000e+01 -1.000000e+02 2.500000e+01
7.500000e+01 -7.500000e+01 2.500000e+01
1.000000e+02 -1.000000e+02 0.000000e+00
1.000000e+02 -7.500000e+01 0.000000e+00
1.000000e+02 -1.000000e+02 2.500000e+01
1.000000e+02 -7.500000e+01 2.500000e+01
7.500000e+01 -5.000000e+01 0.000000e+00
1.000000e+02 -5.000000e+01 0.000000e+00
7.500000e+01 -5.000000e+01 2.500000e+01
1.000000e+02 -5.000000e+01 2.500000e+01
7.500000e+01 -1.000000e+02 5.000000e+01
7.500000e+01 -7.500000e+01 5.000000e+01
1.000000e+02 -1.000000e+02 5.000000e+01
1.000000e+02 -7.500000e+01 5.000000e+01
7.500000e+01 -5.000000e+01 5.000000e+01
1.000000e+02 -5.000000e+01 5.000000e+01
5.000000e+01 -2.500000e+01 0.000000e+00
7.500000e+01 -2.500000e+01 0.000000e+00
5.000000e+01 -2.500000e+01 2.500000e+01
7.500000e+01 -2.500000e+01 2.500000e+01
1.000000e+02 -2.500000e+01 0.000000e+00
1.000000e+02 -2.500000e+01 2.500000e+01
7.500000e+01 0.000000e+00 0.000000e+00
1.000000e+02 0.000000e+00 0.000000e+00
7.500000e+01 0.000000e+00 2.500000e+01
1.000000e+02 0.000000e+00 2.500000e+01
5.000000e+01 0.000000e+00 0.000000e+00
5.000000e+01 0.000000e+00 2.500000e+01
5.000000e+01 -2.500000e+01 5.000000e+01
7.500000e+01 -2.500000e+01 5.000000e+01
1.000000e+02 -2.500000e+01 5.000000e+01
7.500000e+01 0.000000e+00 5.000000e+01
1.000000e+02 0.000000e+00 5.000000e+01
5.000000e+01 0.000000e+00 5.000000e+01
0.000000e+00 -1.000000e+02 7.500000e+01
2.500000e+01 -1.000000e+02 7.500000e+01
0.000000e+00 -7.500000e+01 7.500000e+01
2.500000e+01 -7.500000e+01 7.500000e+01
5.000000e+01 -1.000000e+02 7.500000e+01
5.000000e+01 -7.500000e+01 7.500000e+01
2.500000e+01 -5.000000e+01 7.500000e+01
5.000000e+01 -5.000000e+01 7.500000e+01
0.000000e+00 -5.000000e+01 7.500000e+01
0.000000e+00 -1.000000e+02 1.000000e+02
2.500000e+01 -1.000000e+02 1.000000e+02
0.000000e+00 -7.500000e+01 1.000000e+02
2.500000e+01 -7.500000e+01 1.000000e+02
5.000000e+01 -1.000000e+02 1.000000e+02
5.000000e+01 -7.500000e+01 1.000000e+02
2.500000e+01 -5.000000e+01 1.000000e+02
5.000000e+01 -5.000000e+01 1.000000e+02
0.000000e+00 -5.000000e+01 1.000000e+02
7.500000e+01 -1.000000e+02 7.500000e+01
7.500000e+01 -7.500000e+01 7.500000e+01
1.000000e+02 -1.000000e+02 7.500000e+01
1.000000e+02 -7.500000e+01 7.500000e+01
7.500000e+01 -5.000000e+01 7.500000e+01
1.000000e+02 -5.000000e+01 7.500000e+01
7.500000e+01 -1.000000e+02 1.000000e+02
7.500000e+01 -7.500000e+01 1.000000e+02
1.000000e+02 -1.000000e+02 1.000000e+02
1.000000e+02 -7.500000e+01 1.000000e+02
7.500000e+01 -5.000000e+01 1.000000e+02
1.000000e+02 -5.000000e+01 1.000000e+02
5.000000e+01 -2.500000e+01 7.500000e+01
7.500000e+01 -2.500000e+01 7.500000e+01
1.000000e+02 -2.500000e+01 7.500000e+01
7.500000e+01 0.000000e+00 7.500000e+01
1.000000e+02 0.000000e+00 7.500000e+01
5.000000e+01 0.000000e+00 7.500000e+01
5.000000e+01 -2.500000e+01 1.000000e+02
7.500000e+01 -2.500000e+01 1.000000e+02
1.000000e+02 -2.500000e+01 1.000000e+02
7.500000e+01 0.000000e+00 1.000000e+02
1.000000e+02 0.000000e+00 1.000000e+02
5.000000e+01 0.000000e+00 1.000000e+02
0.000000e+00 -2.500000e+01 5.000000e+01
2.500000e+01 -2.500000e+01 5.000000e+01
0.000000e+00 -2.500000e+01 7.500000e+01
2.500000e+01 -2.500000e+01 7.500000e+01
2.500000e+01 0.000000e+00 5.000000e+01
2.500000e+01 0.000000e+00 7.500000e+01
0.000000e+00 0.000000e+00 5.000000e+01
0.000000e+00 0.000000e+00 7.500000e+01
0.000000e+00 -2.500000e+01 1.000000e+02
2.500000e+01 -2.500000e+01 1.000000e+02
2.500000e+01 0.000000e+00 1.000000e+02
0.000000e+00 0.000000e+00 1.000000e+02
5.000000e+01 2.500000e+01 0.000000e+00
7.500000e+01 2.500000e+01 0.000000e+00
5.000000e+01 2.500000e+01 2.500000e+01
7.500000e+01 2.500000e+01 2.500000e+01
1.000000e+02 2.500000e+01 0.000000e+00
1.000000e+02 2.500000e+01 2.500000e+01
7.500000e+01 5.000000e+01 0.000000e+00
1.000000e+02 5.000000e+01 0.000000e+00
7.500000e+01 5.000000e+01 2.500000e+01
1.000000e+02 5.000000e+01 2.500000e+01
5.000000e+01 5.000000e+01 0.000000e+00
5.000000e+01 5.000000e+01 2.500000e+01
5.000000e+01 2.500000e+01 5.000000e+01
7.500000e+01 2.500000e+01 5.000000e+01
1.000000e+02 2.500000e+01 5.000000e+01
7.500000e+01 5.000000e+01 5.000000e+01
1.000000e+02 5.000000e+01 5.000000e+01
5.000000e+01 5.000000e+01 5.000000e+01
5.000000e+01 7.500000e+01 0.000000e+00
7.500000e+01 7.500000e+01 0.000000e+00
5.000000e+01 7.500000e+01 2.500000e+01
7.500000e+01 7.500000e+01 2.500000e+01
1.000000e+02 7.500000e+01 0.000000e+00
1.000000e+02 7.500000e+01 2.500000e+01
7.500000e+01 1.000000e+02 0.000000e+00
1.000000e+02 1.000000e+02 0.000000e+00
7.500000e+01 1.000000e+02 2.500000e+01
1.000000e+02 1.000000e+02 2.500000e+01
5.000000e+01 1.000000e+02 0.000000e+00
5.000000e+01 1.000000e+02 2.500000e+01
5.000000e+01 7.500000e+01 5.000000e+01
7.500000e+01 7.500000e+01 5.000000e+01
1.000000e+02 7.500000e+01 5.000000e+01
7.500000e+01 1.000000e+02 5.000000e+01
1.000000e+02 1.000000e+02 5.000000e+01
5.000000e+01 1.000000e+02 5.000000e+01
0.000000e+00 5.000000e+01 0.000000e+00
2.500000e+01 5.000000e+01 0.000000e+00
0.000000e+00 7.500000e+01 0.000000e+00
2.500000e+01 7.500000e+01 0.000000e+00
0.000000e+00 5.000000e+01 2.500000e+01
2.500000e+01 5.000000e+01 2.500000e+01
0.000000e+00 7.500000e+01 2.500000e+01
2.500000e+01 7.500000e+01 2.500000e+01
2.500000e+01 1.000000e+02 0.000000e+00
2.500000e+01 1.000000e+02 2.500000e+01
0.000000e+00 1.000000e+02 0.000000e+00
0.000000e+00 1.000000e+02 2.500000e+01
0.000000e+00 5.000000e+01 5.000000e+01
2.500000e+01 5.000000e+01 5.000000e+01
0.000000e+00 7.500000e+01 5.000000e+01
2.500000e+01 7.500000e+01 5.000000e+01
2.500000e+01 1.000000e+02 5.000000e+01
0.000000e+00 1.000000e+02 5.000000e+01
0.000000e+00 2.500000e+01 5.000000e+01
2.500000e+01 2.500000e+01 5.000000e+01
0.000000e+00 2.500000e+01 7.500000e+01
2.500000e+01 2.500000e+01 7.500000e+01
5.000000e+01 2.500000e+01 7.500000e+01
2.500000e+01 5.000000e+01 7.500000e+01
5.000000e+01 5.000000e+01 7.500000e+01
0.000000e+00 5.000000e+01 7.500000e+01
0.000000e+00 2.500000e+01 1.000000e+02
2.500000e+01 2.500000e+01 1.000000e+02
5.000000e+01 2.500000e+01 1.000000e+02
2.500000e+01 5.000000e+01 1.000000e+02
5.000000e+01 5.000000e+01 1.000000e+02
0.000000e+00 5.000000e+01 1.000000e+02
7.500000e+01 2.500000e+01 7.500000e+01
1.000000e+02 2.500000e+01 7.500000e+01
7.500000e+01 5.000000e+01 7.500000e+01
1.000000e+02 5.000000e+01 7.500000e+01
7.500000e+01 2.500000e+01 1.000000e+02
1.000000e+02 2.500000e+01 1.000000e+02
7.500000e+01 5.000000e+01 1.000000e+02
1.000000e+02 5.000000e+01 1.000000e+02
5.000000e+01 7.500000e+01 7.500000e+01
7.500000e+01 7.500000e+01 7.500000e+01
1.000000e+02 7.500000e+01 7.500000e+01
7.500000e+01 1.000000e+02 7.500000e+01
1.000000e+02 1.000000e+02 7.500000e+01
5.000000e+01 1.000000e+02 7.500000e+01
5.000000e+01 7.500000e+01 1.000000e+02
7.500000e+01 7.500000e+01 1.000000e+02
1.000000e+02 7.500000e+01 1.000000e+02
7.500000e+01 1.000000e+02 1.000000e+02
1.000000e+02 1.000000e+02 1.000000e+02
5.000000e+01 1.000000e+02 1.000000e+02
0.000000e+00 7.500000e+01 7.500000e+01
2.500000e+01 7.500000e+01 7.500000e+01
2.500000e+01 1.000000e+02 7.500000e+01
0.000000e+00 1.000000e+02 7.500000e+01
0.000000e+00 7.500000e+01 1.000000e+02
2.500000e+01 7.500000e+01 1.000000e+02
2.500000e+01 1.000000e+02 1.000000e+02
0.000000e+00 1.000000e+02 1.000000e+02
0.000000e+00 -1.000000e+02 -1.000000e+02
2.500000e+01 -1.000000e+02 -1.000000e+02
0.000000e+00 -7.500000e+01 -1.000000e+02
2.500000e+01 -7.500000e+01 -1.000000e+02
0.000000e+00 -1.000000e+02 -7.500000e+01
2.500000e+01 -1.000000e+02 -7.500000e+01
0.000000e+00 -7.500000e+01 -7.500000e+01
2.500000e+01 -7.500000e+01 -7.500000e+01
5.000000e+01 -1.000000e+02 -1.000000e+02
5.000000e+01 -7.500000e+01 -1.000000e+02
5.000000e+01 -1.000000e+02 -7.500000e+01
5.000000e+01 -7.500000e+01 -7.500000e+01
2.500000e+01 -5.000000e+01 -1.000000e+02
5.000000e+01 -5.000000e+01 -1.000000e+02
2.500000e+01 -5.000000e+01 -7.500000e+01
5.000000e+01 -5.000000e+01 -7.500000e+01
0.000000e+00 -5.000000e+01 -1.000000e+02
0.000000e+00 -5.000000e+01 -7.500000e+01
0.000000e+00 -1.000000e+02 -5.000000e+01
2.500000e+01 -1.000000e+02 -5.000000e+01
0.000000e+00 -7.500000e+01 -5.000000e+01
2.500000e+01 -7.500000e+01 -5.000000e+01
5.000000e+01 -1.000000e+02 -5.000000e+01
5.000000e+01 -7.500000e+01 -5.000000e+01
2.500000e+01 -5.000000e+01 -5.000000e+01
5.000000e+01 -5.000000e+01 -5.000000e+01
0.000000e+00 -5.000000e+01 -5.000000e+01
7.500000e+01 -1.000000e+02 -1.000000e+02
7.500000e+01 -7.500000e+01 -1.000000e+02
7.500000e+01 -1.000000e+02 -7.500000e+01
7.500000e+01 -7.500000e+01 -7.500000e+01
1.000000e+02 -1.000000e+02 -1.000000e+02
1.000000e+02 -7.500000e+01 -1.000000e+02
1.000000e+02 -1.000000e+02 -7.500000e+01
1.000000e+02 -7.500000e+01 -7.500000e+01
7.500000e+01 -5.000000e+01 -1.000000e+02
1.000000e+02 -5.000000e+01 -1.000000e+02
[...]
POINT_DATA 9663
SCALARS RSolution float 1
LOOKUP_TABLE default
0.000000e+00
0.000000e+00
-2.009622e-07
-7.035696e-08
0.000000e+00
0.000000e+00
-9.601053e-10
-2.599524e-08
0.000000e+00
1.262951e-08
0.000000e+00
4.841199e-09
4.055490e-07
-6.346989e-08
1.476776e-07
-2.329223e-08
1.088206e-06
3.306589e-08
0.000000e+00
0.000000e+00
-4.430450e-09
8.570171e-09
0.000000e+00
-1.656254e-09
-4.331934e-08
7.768046e-09
1.859544e-08
0.000000e+00
-2.743396e-09
0.000000e+00
-1.036254e-09
0.000000e+00
0.000000e+00
0.000000e+00
0.000000e+00
1.264241e-08
0.000000e+00
4.519553e-09
0.000000e+00
0.000000e+00
3.557283e-10
0.000000e+00
0.000000e+00
-1.577378e-09
0.000000e+00
5.808228e-07
-1.003351e-07
1.604787e-07
-2.527346e-08
0.000000e+00
0.000000e+00
-3.304908e-07
0.000000e+00
-1.003314e-07
0.000000e+00
1.830178e-06
5.808214e-07
-2.329291e-08
4.518950e-09
0.000000e+00
1.263845e-08
0.000000e+00
-6.346512e-08
0.000000e+00
0.000000e+00
1.070304e-09
-1.835023e-09
0.000000e+00
3.588294e-10
8.573605e-09
-1.656878e-09
-4.434277e-09
0.000000e+00
0.000000e+00
0.000000e+00
0.000000e+00
0.000000e+00
0.000000e+00
0.000000e+00
0.000000e+00
0.000000e+00
0.000000e+00
-7.879441e-11
0.000000e+00
0.000000e+00
3.556137e-10
0.000000e+00
0.000000e+00
0.000000e+00
0.000000e+00
0.000000e+00
0.000000e+00
0.000000e+00
4.842501e-09
-1.035854e-09
0.000000e+00
-2.741952e-09
0.000000e+00
1.262634e-08
0.000000e+00
0.000000e+00
0.000000e+00
0.000000e+00
0.000000e+00
0.000000e+00
3.306794e-08
1.476771e-07
-9.565874e-10
-2.599937e-08
4.055474e-07
-7.035398e-08
1.088204e-06
-2.009634e-07
0.000000e+00
0.000000e+00
0.000000e+00
0.000000e+00
2.377415e-07
-3.700221e-08
8.046812e-08
-1.140910e-08
0.000000e+00
0.000000e+00
1.519919e-08
0.000000e+00
-2.184977e-09
0.000000e+00
-8.179356e-08
8.780895e-09
-1.462810e-08
2.832942e-09
0.000000e+00
-1.574275e-11
0.000000e+00
4.927388e-10
1.666546e-08
-3.381206e-09
-2.296507e-09
5.350036e-10
0.000000e+00
0.000000e+00
0.000000e+00
0.000000e+00
0.000000e+00
0.000000e+00
0.000000e+00
0.000000e+00
-8.038727e-11
9.728441e-12
0.000000e+00
0.000000e+00
0.000000e+00
0.000000e+00
-3.217756e-07
1.982117e-07
6.282814e-08
-3.938123e-08
1.609575e-07
-8.905698e-08
-3.184965e-08
1.807634e-08
0.000000e+00
0.000000e+00
0.000000e+00
0.000000e+00
-1.467411e-08
-2.053232e-09
3.526601e-09
4.416423e-12
0.000000e+00
0.000000e+00
-8.869777e-08
1.150077e-07
2.182673e-08
-2.022659e-08
3.170589e-09
3.136137e-10
-5.640951e-11
1.658556e-09
0.000000e+00
0.000000e+00
0.000000e+00
0.000000e+00
0.000000e+00
0.000000e+00
-6.847950e-10
0.000000e+00
-2.093322e-12
0.000000e+00
0.000000e+00
0.000000e+00
0.000000e+00
0.000000e+00
9.014152e-12
-1.222013e-12
0.000000e+00
0.000000e+00
0.000000e+00
0.000000e+00
0.000000e+00
0.000000e+00
0.000000e+00
0.000000e+00
0.000000e+00
0.000000e+00
-5.116287e-10
1.792066e-12
0.000000e+00
0.000000e+00
0.000000e+00
0.000000e+00
0.000000e+00
0.000000e+00
0.000000e+00
0.000000e+00
0.000000e+00
0.000000e+00
0.000000e+00
0.000000e+00
-5.087527e-10
1.280798e-12
0.000000e+00
0.000000e+00
0.000000e+00
8.314944e-12
0.000000e+00
0.000000e+00
4.746242e-12
-7.728635e-11
0.000000e+00
3.522492e-09
0.000000e+00
0.000000e+00
1.654018e-09
3.142188e-10
0.000000e+00
-5.478274e-11
-2.055004e-09
4.883693e-10
-1.466760e-08
0.000000e+00
0.000000e+00
0.000000e+00
4.068074e-14
0.000000e+00
0.000000e+00
0.000000e+00
0.000000e+00
0.000000e+00
0.000000e+00
6.764855e-12
0.000000e+00
0.000000e+00
-4.076596e-12
0.000000e+00
0.000000e+00
-1.083406e-11
0.000000e+00
0.000000e+00
0.000000e+00
-2.300370e-09
5.377196e-10
0.000000e+00
0.000000e+00
0.000000e+00
0.000000e+00
-3.383346e-09
0.000000e+00
0.000000e+00
1.667038e-08
8.787659e-09
-2.191062e-09
0.000000e+00
1.520359e-08
0.000000e+00
-8.179976e-08
0.000000e+00
0.000000e+00
-3.184721e-08
1.807673e-08
0.000000e+00
-3.938425e-08
0.000000e+00
6.283040e-08
1.609554e-07
-8.905692e-08
1.982129e-07
-3.217784e-07
0.000000e+00
0.000000e+00
2.183069e-08
-2.022672e-08
0.000000e+00
3.168298e-09
1.150116e-07
-1.462444e-08
-8.870625e-08
0.000000e+00
-6.832029e-10
0.000000e+00
0.000000e+00
2.829148e-09
0.000000e+00
8.046355e-08
-1.140312e-08
0.000000e+00
-3.700596e-08
0.000000e+00
2.377469e-07
9.037177e-08
5.307400e-06
2.544709e-06
2.583067e-08
3.900491e-08
3.794614e-07
8.885630e-07
1.757658e-06
5.217915e-08
3.599793e-07
5.412201e-05
1.385380e-05
2.544708e-06
1.757656e-06
4.708645e-05
5.307400e-06
-1.236195e-08
2.583169e-08
3.900528e-08
5.217887e-08
9.037251e-08
6.219270e-08
2.973550e-07
2.220853e-08
9.265830e-08
6.859325e-08
-7.762093e-09
3.041541e-08
1.906198e-06
2.973546e-07
6.859291e-08
-1.777564e-08
2.220822e-08
-7.762432e-09
6.219208e-08
-8.361303e-09
7.314390e-08
1.379397e-08
-5.168693e-08
2.395681e-09
1.574560e-07
2.800995e-07
-4.555596e-08
5.647829e-08
1.428985e-07
3.594924e-08
-8.755217e-07
4.979615e-07
-1.675767e-06
1.315266e-08
2.185987e-06
1.925123e-06
1.015550e-06
2.014953e-05
7.633534e-06
6.660586e-06
-7.833172e-10
-2.045897e-08
2.470513e-08
4.665122e-08
4.638014e-09
-7.068034e-09
1.877879e-08
-4.013463e-08
1.860245e-07
4.462560e-08
5.019357e-08
2.249295e-07
3.291956e-08
1.278173e-06
5.457799e-08
9.035970e-09
-4.441279e-07
5.050743e-07
-3.650605e-08
6.129958e-08
5.820657e-08
7.030657e-07
7.797355e-08
-1.943416e-06
2.723823e-05
2.924523e-06
1.591052e-07
3.408572e-06
3.517152e-05
-8.041150e-08
-1.291676e-08
-4.802725e-06
-6.538193e-06
-6.178275e-08
-7.763063e-06
7.542766e-06
-6.589606e-05
4.554366e-05
-3.615977e-06
-2.925263e-04
3.517152e-05
3.408573e-06
-1.943417e-06
7.030660e-07
2.723823e-05
2.924523e-06
-4.441268e-07
5.050751e-07
7.797398e-08
1.591048e-07
6.129924e-08
5.820905e-08
9.035501e-09
-3.650633e-08
5.457733e-08
7.633535e-06
1.278172e-06
4.979620e-07
1.860269e-07
4.462451e-08
-4.013804e-08
-2.925263e-04
-3.615976e-06
7.542765e-06
-7.763064e-06
-6.589605e-05
4.554365e-05
-4.802725e-06
-6.538193e-06
-6.178200e-08
-1.291586e-08
-8.040905e-08
6.660584e-06
2.014953e-05
-1.675767e-06
-8.755222e-07
3.595028e-08
1.015551e-06
2.249293e-07
1.428989e-07
4.665089e-08
3.292001e-08
1.877841e-08
-2.045915e-08
4.636817e-09
-4.555511e-08
5.018981e-08
5.647725e-08
2.470478e-08
-7.067681e-09
-7.802467e-10
2.185987e-06
1.925121e-06
1.574566e-07
2.801004e-07
1.379330e-08
7.314171e-08
1.315497e-08
-5.168594e-08
2.395651e-09
-8.363673e-09
8.957653e-05
3.266735e-05
2.320264e-04
7.224491e-05
8.491361e-05
3.112228e-05
2.180985e-04
6.851849e-05
1.006046e-05
1.964451e-05
9.652466e-06
1.866634e-05
1.272209e-04
3.206561e-05
1.186191e-04
3.176467e-05
4.766744e-04
4.411409e-04
6.245101e-05
2.372586e-05
1.527967e-04
5.088258e-05
7.580397e-06
1.463707e-05
8.768142e-05
2.370294e-05
2.979513e-04
2.729408e-06
4.899327e-06
2.620939e-06
4.755724e-06
8.931616e-07
4.757368e-07
7.362623e-07
7.569679e-06
1.205500e-06
7.468543e-06
9.967878e-07
2.130358e-06
3.797501e-06
3.706507e-07
5.793630e-07
5.888696e-06
7.880753e-07
4.325065e-05
9.516997e-06
4.872435e-05
8.749421e-06
1.517839e-06
1.257313e-06
9.706598e-06
9.516996e-06
1.517839e-06
4.330430e-05
4.325065e-05
3.176467e-05
7.468542e-06
9.967875e-07
7.569679e-06
1.205500e-06
3.206561e-05
3.670264e-05
1.446722e-05
8.275552e-05
3.012839e-05
5.051710e-06
9.322017e-06
5.088258e-05
1.463707e-05
1.527967e-04
7.879999e-06
3.670264e-05
1.446722e-05
5.051711e-06
2.372586e-05
7.580399e-06
6.245101e-05
1.417468e-06
2.551345e-06
2.655647e-07
4.224637e-07
3.797502e-06
5.793627e-07
1.033338e-06
1.417468e-06
2.655644e-07
2.130359e-06
3.706501e-07
1.866635e-05
4.755726e-06
7.362616e-07
4.899327e-06
8.931606e-07
1.964451e-05
9.652469e-06
2.620940e-06
4.757357e-07
2.729410e-06
1.006046e-05
4.411409e-04
1.186191e-04
2.180985e-04
6.851849e-05
1.272209e-04
7.224492e-05
4.766744e-04
2.320264e-04
8.491361e-05
3.112228e-05
3.266735e-05
8.957653e-05
1.340506e-05
-2.961774e-05
1.614428e-06
6.222976e-05
6.425661e-05
4.722619e-05
1.373679e-04
3.284659e-05
6.291812e-05
1.460000e-04
-1.017620e-05
1.565645e-04
2.497764e-04
-1.088279e-04
1.177989e-04
1.825291e-04
3.114305e-04
5.044398e-04
1.544749e-04
4.303973e-04
1.079934e-03
9.558480e-04
2.580509e-04
1.389153e-05
2.514124e-05
4.329477e-05
9.913385e-05
1.743588e-05
2.282130e-05
4.854217e-05
3.639094e-05
1.765520e-04
8.302018e-05
9.549328e-05
2.435694e-04
4.563281e-05
1.056214e-04
5.011554e-04
1.958184e-04
2.096384e-05
2.608436e-05
2.744106e-04
2.330592e-04
3.120488e-05
1.094375e-04
1.577777e-05
2.128045e-04
1.074458e-04
1.572120e-04
1.472975e-03
7.445858e-04
2.748319e-04
7.425030e-04
2.805472e-04
1.307094e-03
-1.792112e-04
-7.912368e-05
-5.872608e-04
-2.802249e-05
-1.480712e-04
-3.569601e-04
-1.081285e-03
-1.088400e-03
1.245460e-03
1.194459e-04
-3.926693e-03
1.307094e-03
7.425030e-04
1.572120e-04
2.128045e-04
1.472975e-03
7.445858e-04
2.744106e-04
2.330592e-04
2.805472e-04
1.074458e-04
2.748319e-04
1.094375e-04
1.577777e-05
2.608436e-05
3.120488e-05
2.096384e-05
9.558480e-04
5.011554e-04
2.497764e-04
1.765520e-04
1.958184e-04
8.302018e-05
3.639094e-05
-3.926693e-03
1.194459e-04
-1.081285e-03
-3.569601e-04
-1.088400e-03
1.245460e-03
-5.872608e-04
-2.802249e-05
-1.480712e-04
-7.912367e-05
-1.792112e-04
2.580509e-04
1.079934e-03
-1.088279e-04
1.565645e-04
-1.017620e-05
4.303973e-04
2.435694e-04
1.460000e-04
9.913385e-05
1.056214e-04
4.854217e-05
2.514124e-05
1.743588e-05
3.284659e-05
1.544749e-04
9.549328e-05
6.291812e-05
4.329477e-05
4.563281e-05
2.282130e-05
1.389153e-05
3.114305e-04
5.044398e-04
4.722618e-05
1.373679e-04
1.614430e-06
-2.961773e-05
1.177989e-04
1.825291e-04
6.222975e-05
6.425661e-05
1.340506e-05
9.175420e-07
-4.608994e-06
3.057927e-06
8.244212e-07
7.035862e-07
-3.138381e-06
2.916352e-06
7.468777e-07
5.492497e-06
5.827512e-07
5.354023e-06
3.267117e-05
2.321305e-05
3.138531e-05
2.276615e-05
-1.030619e-05
-7.101183e-06
5.606361e-07
4.896304e-07
-1.667768e-06
2.662666e-06
4.186247e-07
4.366231e-06
2.494469e-05
1.795758e-05
-3.896172e-06
5.762134e-07
3.761469e-06
4.619162e-07
3.669508e-06
2.294246e-06
3.410812e-07
2.228264e-06
1.619787e-05
8.899090e-06
1.570644e-05
8.599394e-06
3.476190e-07
3.009909e-06
2.766133e-07
1.823871e-06
1.238058e-05
6.834316e-06
1.016804e-04
6.264010e-05
9.815975e-05
6.006367e-05
3.070350e-05
2.938803e-05
2.163737e-04
2.045300e-04
4.004159e-04
3.790310e-04
7.341713e-05
4.520451e-05
2.249248e-05
1.441166e-04
2.594952e-04
2.078175e-04
1.177533e-04
1.782598e-04
1.167702e-04
5.385223e-04
5.232836e-04
4.259412e-04
3.636207e-04
1.487021e-04
8.829364e-05
3.512463e-04
3.013003e-04
2.968510e-07
2.756746e-07
5.012325e-07
1.858815e-06
2.544982e-07
2.696891e-06
1.628338e-05
1.202998e-05
7.056140e-07
6.171883e-08
2.670233e-06
1.993887e-06
1.317540e-06
3.926054e-06
2.333219e-07
1.876685e-06
2.121455e-07
1.185659e-06
8.287266e-06
4.590641e-06
1.190247e-07
1.135104e-06
9.526676e-07
2.151183e-06
4.216281e-05
2.695751e-05
1.392552e-05
7.892240e-05
1.342491e-04
2.833336e-05
1.806955e-05
7.805729e-06
3.398791e-05
8.744949e-05
5.184963e-05
1.797929e-04
1.741934e-04
2.619693e-05
2.726514e-05
5.060423e-05
1.741934e-04
1.797929e-04
2.619693e-05
2.726514e-05
8.744949e-05
5.184963e-05
1.342491e-04
2.833336e-05
4.216281e-05
3.512463e-04
2.594952e-04
8.829363e-05
7.341713e-05
3.013003e-04
1.487021e-04
3.926054e-06
7.056130e-07
1.628338e-05
1.202997e-05
2.494469e-05
1.795758e-05
-3.896174e-06
7.892240e-05
1.806954e-05
2.695751e-05
7.805728e-06
1.392552e-05
1.441166e-04
4.520451e-05
2.249248e-05
2.151182e-06
8.287264e-06
4.590639e-06
1.238058e-05
6.834315e-06
3.790310e-04
2.045300e-04
9.815975e-05
6.006367e-05
2.938803e-05
2.163737e-04
6.264010e-05
3.070350e-05
4.004159e-04
1.016804e-04
2.276615e-05
1.570644e-05
8.599394e-06
1.619787e-05
8.899089e-06
2.321306e-05
3.636207e-04
5.232836e-04
1.782598e-04
1.167702e-04
5.385223e-04
1.177533e-04
4.259412e-04
2.078175e-04
-7.101184e-06
3.138531e-05
3.267117e-05
-1.030619e-05
2.670234e-06
1.993887e-06
5.012325e-07
1.858815e-06
1.317540e-06
2.696891e-06
2.662666e-06
4.366231e-06
-1.667769e-06
6.172022e-08
2.968520e-07
2.756752e-07
2.544983e-07
4.896301e-07
4.186242e-07
5.606361e-07
1.135103e-06
1.876684e-06
9.526665e-07
1.185659e-06
3.009909e-06
1.823872e-06
1.190248e-07
2.333215e-07
2.121447e-07
3.476182e-07
2.766122e-07
5.354023e-06
3.669508e-06
2.228263e-06
3.761469e-06
2.294246e-06
5.492497e-06
5.827500e-07
4.619149e-07
3.410798e-07
5.762116e-07
7.468758e-07
-3.138382e-06
2.916352e-06
3.057928e-06
-4.608994e-06
8.244202e-07
7.035851e-07
9.175401e-07
1.471092e-03
8.532295e-04
2.030226e-03
1.130140e-03
1.485091e-03
8.639874e-04
2.052142e-03
1.141570e-03
6.000121e-04
4.589077e-04
6.286134e-04
1.365563e-03
7.233497e-04
1.386804e-03
7.388001e-04
2.528527e-03
2.559312e-03
1.351017e-03
7.921775e-04
1.851972e-03
1.046096e-03
5.748381e-04
1.266039e-03
6.797807e-04
2.298241e-03
2.811257e-03
1.496719e-03
2.855446e-03
1.517212e-03
7.528146e-04
8.097778e-04
1.464894e-03
7.822795e-04
1.496719e-03
7.528146e-04
2.754606e-03
2.811257e-03
2.559312e-03
1.386804e-03
7.388001e-04
1.365563e-03
7.233497e-04
2.528527e-03
1.115237e-03
6.669788e-04
1.508184e-03
8.695588e-04
3.695461e-04
4.914926e-04
1.046096e-03
5.748381e-04
1.851972e-03
8.448048e-04
5.162959e-04
1.115237e-03
6.669788e-04
3.695461e-04
7.921775e-04
1.351017e-03
2.052142e-03
1.141570e-03
6.286133e-04
1.130140e-03
6.000121e-04
2.030226e-03
1.485091e-03
8.639874e-04
4.589077e-04
8.532295e-04
1.471092e-03
1.887953e-03
1.306662e-03
2.633449e-03
1.770374e-03
1.252809e-03
8.938253e-04
1.692430e-03
1.183246e-03
5.945687e-04
7.705872e-04
2.190898e-03
1.435458e-03
9.202731e-04
3.332234e-03
2.082409e-03
7.780310e-04
5.720117e-04
1.020732e-03
7.394812e-04
3.922587e-04
4.989216e-04
8.806864e-04
5.874241e-04
1.228743e-03
3.728707e-04
4.736154e-04
2.253740e-04
2.774969e-04
5.562259e-04
3.296197e-04
2.539137e-04
3.178745e-04
1.854476e-04
3.693440e-04
1.003741e-03
6.031864e-04
3.419851e-04
5.975525e-04
3.543504e-04
9.944177e-04
6.357044e-04
3.981499e-04
2.250625e-04
3.945642e-04
6.297791e-04
3.756757e-03
2.435564e-03
2.304379e-03
1.578310e-03
2.408297e-03
1.559644e-03
3.694421e-03
2.270263e-03
1.344307e-03
9.576667e-04
9.463718e-04
1.320221e-03
4.582176e-04
3.465887e-04
5.859818e-04
4.384570e-04
2.451537e-04
3.063262e-04
5.126350e-04
3.552336e-04
6.908315e-04
2.018059e-04
3.192631e-04
2.467932e-04
1.743233e-04
2.917805e-04
1.629578e-04
2.011319e-04
1.076239e-04
1.295650e-04
2.306543e-04
1.515061e-04
1.032838e-04
1.240028e-04
7.368231e-05
1.447218e-04
3.820974e-04
2.477159e-04
1.561538e-04
2.448048e-04
1.608015e-04
3.778355e-04
2.104519e-04
1.488485e-04
8.724507e-05
1.529751e-04
7.478320e-04
5.534017e-04
5.454586e-04
7.331788e-04
3.897234e-04
3.000876e-04
3.083948e-04
3.083948e-04
7.331788e-04
5.454585e-04
3.897234e-04
3.000876e-04
7.478320e-04
5.534017e-04
3.778355e-04
2.104519e-04
3.820974e-04
9.463718e-04
6.297791e-04
9.576667e-04
6.357044e-04
1.320221e-03
1.344307e-03
2.917805e-04
6.908315e-04
5.126350e-04
3.552336e-04
8.806864e-04
5.874241e-04
1.228743e-03
1.529751e-04
2.448047e-04
1.488485e-04
2.477159e-04
1.608015e-04
8.724507e-05
1.561538e-04
3.945642e-04
3.981499e-04
2.250625e-04
1.447218e-04
2.306543e-04
1.515061e-04
3.693440e-04
9.944177e-04
5.975525e-04
1.003741e-03
6.031864e-04
3.543504e-04
3.419851e-04
9.202731e-04
5.562259e-04
3.296197e-04
2.270263e-03
1.559644e-03
2.304379e-03
1.578310e-03
2.408297e-03
2.435564e-03
3.694421e-03
3.756757e-03
2.082409e-03
1.435458e-03
2.190898e-03
3.332234e-03
3.192631e-04
2.467932e-04
5.859818e-04
4.384570e-04
1.743233e-04
3.063262e-04
7.394812e-04
4.989216e-04
1.020732e-03
2.018059e-04
4.582176e-04
3.465887e-04
2.451537e-04
5.720117e-04
3.922587e-04
7.780310e-04
1.240028e-04
2.011319e-04
7.368231e-05
1.295650e-04
3.178745e-04
1.854476e-04
1.032838e-04
1.629578e-04
1.076239e-04
2.539137e-04
7.705872e-04
4.736154e-04
2.774969e-04
5.945687e-04
3.728707e-04
2.253740e-04
1.692430e-03
1.183246e-03
1.770374e-03
2.633449e-03
1.252809e-03
8.938253e-04
0.000000e+00
0.000000e+00
0.000000e+00
0.000000e+00
0.000000e+00
-4.979116e-09
0.000000e+00
-1.136957e-09
0.000000e+00
0.000000e+00
2.238567e-08
5.501095e-09
0.000000e+00
0.000000e+00
4.112973e-10
-1.906403e-09
0.000000e+00
0.000000e+00
0.000000e+00
2.305951e-08
0.000000e+00
5.381673e-09
-1.126944e-07
-2.939511e-08
-1.913117e-09
9.385326e-09
0.000000e+00
0.000000e+00
0.000000e+00
-3.103919e-08
-1.150987e-08
0.000000e+00
-3.024006e-08
0.000000e+00
0.000000e+00
6.225803e-09
1.488585e-08
1.576703e-07
6.461892e-08
1.535198e-07
-3.242771e-08
-7.369733e-08
0.000000e+00
0.000000e+00
4.077932e-10
-1.324376e-09
0.000000e+00
-3.265895e-09
0.000000e+00
0.000000e+00
0.000000e+00
0.000000e+00
0.000000e+00
0.000000e+00
-1.908105e-09
6.228162e-09
1.488497e-08
0.000000e+00
0.000000e+00
0.000000e+00
0.000000e+00
0.000000e+00
0.000000e+00
-8.923778e-11
0.000000e+00
0.000000e+00
0.000000e+00
0.000000e+00
0.000000e+00
4.114291e-10
0.000000e+00
0.000000e+00
0.000000e+00
-5.950379e-08
0.000000e+00
-4.605540e-09
3.025433e-07
3.342369e-08
5.380456e-09
-2.939297e-08
0.000000e+00
0.000000e+00
1.160309e-07
0.000000e+00
-5.950564e-08
-5.969327e-07
3.025440e-07
2.306204e-08
-1.126977e-07
0.000000e+00
6.461779e-08
5.503540e-09
-1.151182e-08
1.535179e-07
-3.023892e-08
0.000000e+00
0.000000e+00
0.000000e+00
1.576708e-07
2.238324e-08
-3.103641e-08
0.000000e+00
0.000000e+00
0.000000e+00
-1.138133e-09
0.000000e+00
0.000000e+00
0.000000e+00
-4.977413e-09
0.000000e+00
0.000000e+00
0.000000e+00
0.000000e+00
0.000000e+00
0.000000e+00
0.000000e+00
0.000000e+00
0.000000e+00
-2.758306e-11
0.000000e+00
0.000000e+00
0.000000e+00
1.182597e-10
0.000000e+00
0.000000e+00
1.327966e-10
-5.761112e-10
0.000000e+00
0.000000e+00
0.000000e+00
0.000000e+00
0.000000e+00
1.245570e-10
0.000000e+00
-5.671222e-10
-6.180791e-10
2.926800e-09
0.000000e+00
0.000000e+00
0.000000e+00
0.000000e+00
-6.637458e-10
0.000000e+00
2.805729e-09
0.000000e+00
3.158007e-09
-1.456931e-08
0.000000e+00
0.000000e+00
4.455551e-10
-3.073966e-10
-4.360374e-09
6.582436e-09
0.000000e+00
0.000000e+00
0.000000e+00
-3.331127e-11
0.000000e+00
3.201418e-10
0.000000e+00
0.000000e+00
0.000000e+00
-4.817997e-10
0.000000e+00
2.406072e-09
2.181400e-09
-1.191513e-08
0.000000e+00
0.000000e+00
0.000000e+00
0.000000e+00
1.233268e-10
0.000000e+00
-2.082259e-09
1.277886e-09
8.877256e-10
0.000000e+00
0.000000e+00
-1.547350e-08
7.449672e-08
0.000000e+00
6.787610e-08
-3.394267e-07
0.000000e+00
7.221285e-09
-2.809062e-08
0.000000e+00
-5.774585e-08
2.927761e-07
0.000000e+00
-5.774752e-08
0.000000e+00
7.223565e-09
2.927803e-07
-2.809360e-08
3.166630e-10
-4.354362e-09
0.000000e+00
0.000000e+00
1.276773e-09
0.000000e+00
2.180265e-09
8.866388e-10
-1.191285e-08
-6.158218e-10
2.921943e-09
0.000000e+00
6.578666e-09
4.455291e-10
-3.062015e-10
0.000000e+00
0.000000e+00
-1.456308e-08
-5.745798e-10
2.803412e-09
0.000000e+00
0.000000e+00
0.000000e+00
-3.354199e-11
0.000000e+00
0.000000e+00
0.000000e+00
1.323596e-10
0.000000e+00
0.000000e+00
0.000000e+00
1.262434e-10
0.000000e+00
-4.828566e-10
-2.084500e-09
2.405528e-09
1.240618e-10
-5.637119e-10
0.000000e+00
0.000000e+00
0.000000e+00
0.000000e+00
0.000000e+00
0.000000e+00
0.000000e+00
0.000000e+00
0.000000e+00
0.000000e+00
-3.394249e-07
7.449190e-08
6.787668e-08
-1.547128e-08
3.152542e-09
0.000000e+00
0.000000e+00
0.000000e+00
1.160939e-10
-6.603635e-10
0.000000e+00
0.000000e+00
0.000000e+00
0.000000e+00
0.000000e+00
0.000000e+00
0.000000e+00
-2.688417e-11
0.000000e+00
0.000000e+00
0.000000e+00
0.000000e+00
0.000000e+00
0.000000e+00
0.000000e+00
9.432203e-09
0.000000e+00
-1.454142e-09
0.000000e+00
0.000000e+00
-2.791392e-09
6.330110e-10
-4.349524e-08
5.304237e-09
1.205438e-08
-2.652885e-09
0.000000e+00
3.413570e-10
0.000000e+00
0.000000e+00
0.000000e+00
0.000000e+00
-1.575711e-10
0.000000e+00
-1.411554e-09
0.000000e+00
6.806092e-10
0.000000e+00
0.000000e+00
0.000000e+00
-1.477338e-10
3.556444e-11
0.000000e+00
0.000000e+00
0.000000e+00
0.000000e+00
0.000000e+00
0.000000e+00
0.000000e+00
0.000000e+00
6.328744e-10
-1.563241e-10
0.000000e+00
0.000000e+00
0.000000e+00
0.000000e+00
0.000000e+00
6.473034e-10
0.000000e+00
0.000000e+00
-2.790882e-09
0.000000e+00
3.623013e-08
-4.339143e-09
0.000000e+00
-1.409246e-09
0.000000e+00
5.301296e-09
-1.451935e-09
3.399816e-10
0.000000e+00
0.000000e+00