# vtk DataFile Version 2.0

ASCII

DATASET UNSTRUCTURED_GRID
POINTS 387 float
-1.000000e+02 -1.000000e+02 -1.000000e+02
-5.000000e+01 -1.000000e+02 -1.000000e+02
-1.000000e+02 -5.000000e+01 -1.000000e+02
-5.000000e+01 -5.000000e+01 -1.000000e+02
-1.000000e+02 -1.000000e+02 -5.000000e+01
-5.000000e+01 -1.000000e+02 -5.000000e+01
-1.000000e+02 -5.000000e+01 -5.000000e+01
-5.000000e+01 -5.000000e+01 -5.000000e+01
0.000000e+00 -1.000000e+02 -1.000000e+02
0.000000e+00 -5.000000e+01 -1.000000e+02
0.000000e+00 -1.000000e+02 -5.000000e+01
0.000000e+00 -5.000000e+01 -5.000000e+01
-5.000000e+01 0.000000e+00 -1.000000e+02
0.000000e+00 0.000000e+00 -1.000000e+02
-5.000000e+01 0.000000e+00 -5.000000e+01
0.000000e+00 0.000000e+00 -5.000000e+01
-1.000000e+02 0.000000e+00 -1.000000e+02
-1.000000e+02 0.000000e+00 -5.000000e+01
-1.000000e+02 -1.000000e+02 0.000000e+00
-5.000000e+01 -1.000000e+02 0.000000e+00
-1.000000e+02 -5.000000e+01 0.000000e+00
-5.000000e+01 -5.000000e+01 0.000000e+00
0.000000e+00 -1.000000e+02 0.000000e+00
0.000000e+00 -5.000000e+01 0.000000e+00
-5.000000e+01 0.000000e+00 0.000000e+00
0.000000e+00 0.000000e+00 0.000000e+00
-1.000000e+02 0.000000e+00 0.000000e+00
5.000000e+01 -1.000000e+02 -1.000000e+02
5.000000e+01 -5.000000e+01 -1.000000e+02
5.000000e+01 -1.000000e+02 -5.000000e+01
5.000000e+01 -5.000000e+01 -5.000000e+01
1.000000e+02 -1.000000e+02 -1.000000e+02
1.000000e+02 -5.000000e+01 -1.000000e+02
1.000000e+02 -1.000000e+02 -5.000000e+01
1.000000e+02 -5.000000e+01 -5.000000e+01
5.000000e+01 0.000000e+00 -1.000000e+02
1.000000e+02 0.000000e+00 -1.000000e+02
5.000000e+01 0.000000e+00 -5.000000e+01
1.000000e+02 0.000000e+00 -5.000000e+01
5.000000e+01 -1.000000e+02 0.000000e+00
5.000000e+01 -5.000000e+01 0.000000e+00
1.000000e+02 -1.000000e+02 0.000000e+00
1.000000e+02 -5.000000e+01 0.000000e+00
5.000000e+01 0.000000e+00 0.000000e+00
1.000000e+02 0.000000e+00 0.000000e+00
-1.000000e+02 5.000000e+01 -1.000000e+02
-5.000000e+01 5.000000e+01 -1.000000e+02
-1.000000e+02 5.000000e+01 -5.000000e+01
-5.000000e+01 5.000000e+01 -5.000000e+01
0.000000e+00 5.000000e+01 -1.000000e+02
0.000000e+00 5.000000e+01 -5.000000e+01
-5.000000e+01 1.000000e+02 -1.000000e+02
0.000000e+00 1.000000e+02 -1.000000e+02
-5.000000e+01 1.000000e+02 -5.000000e+01
0.000000e+00 1.000000e+02 -5.000000e+01
-1.000000e+02 1.000000e+02 -1.000000e+02
-1.000000e+02 1.000000e+02 -5.000000e+01
-1.000000e+02 5.000000e+01 0.000000e+00
-5.000000e+01 5.000000e+01 0.000000e+00
0.000000e+00 5.000000e+01 0.000000e+00
-5.000000e+01 1.000000e+02 0.000000e+00
0.000000e+00 1.000000e+02 0.000000e+00
-1.000000e+02 1.000000e+02 0.000000e+00
-1.000000e+02 -1.000000e+02 5.000000e+01
-5.000000e+01 -1.000000e+02 5.000000e+01
-1.000000e+02 -5.000000e+01 5.000000e+01
-5.000000e+01 -5.000000e+01 5.000000e+01
0.000000e+00 -1.000000e+02 5.000000e+01
0.000000e+00 -5.000000e+01 5.000000e+01
-5.000000e+01 0.000000e+00 5.000000e+01
0.000000e+00 0.000000e+00 5.000000e+01
-1.000000e+02 0.000000e+00 5.000000e+01
-1.000000e+02 -1.000000e+02 1.000000e+02
-5.000000e+01 -1.000000e+02 1.000000e+02
-1.000000e+02 -5.000000e+01 1.000000e+02
-5.000000e+01 -5.000000e+01 1.000000e+02
0.000000e+00 -1.000000e+02 1.000000e+02
0.000000e+00 -5.000000e+01 1.000000e+02
-5.000000e+01 0.000000e+00 1.000000e+02
0.000000e+00 0.000000e+00 1.000000e+02
-1.000000e+02 0.000000e+00 1.000000e+02
-1.000000e+02 5.000000e+01 5.000000e+01
-5.000000e+01 5.000000e+01 5.000000e+01
0.000000e+00 5.000000e+01 5.000000e+01
-5.000000e+01 1.000000e+02 5.000000e+01
0.000000e+00 1.000000e+02 5.000000e+01
-1.000000e+02 1.000000e+02 5.000000e+01
-1.000000e+02 5.000000e+01 1.000000e+02
-5.000000e+01 5.000000e+01 1.000000e+02
0.000000e+00 5.000000e+01 1.000000e+02
-5.000000e+01 1.000000e+02 1.000000e+02
0.000000e+00 1.000000e+02 1.000000e+02
-1.000000e+02 1.000000e+02 1.000000e+02
2.500000e+01 0.000000e+00 0.000000e+00
0.000000e+00 2.500000e+01 0.000000e+00
2.500000e+01 2.500000e+01 0.000000e+00
0.000000e+00 0.000000e+00 2.500000e+01
2.500000e+01 0.000000e+00 2.500000e+01
0.000000e+00 2.500000e+01 2.500000e+01
2.500000e+01 2.500000e+01 2.500000e+01
5.000000e+01 2.500000e+01 0.000000e+00
5.000000e+01 0.000000e+00 2.500000e+01
5.000000e+01 2.500000e+01 2.500000e+01
2.500000e+01 5.000000e+01 0.000000e+00
5.000000e+01 5.000000e+01 0.000000e+00
2.500000e+01 5.000000e+01 2.500000e+01
5.000000e+01 5.000000e+01 2.500000e+01
0.000000e+00 5.000000e+01 2.500000e+01
2.500000e+01 0.000000e+00 5.000000e+01
0.000000e+00 2.500000e+01 5.000000e+01
2.500000e+01 2.500000e+01 5.000000e+01
5.000000e+01 0.000000e+00 5.000000e+01
5.000000e+01 2.500000e+01 5.000000e+01
2.500000e+01 5.000000e+01 5.000000e+01
5.000000e+01 5.000000e+01 5.000000e+01
7.500000e+01 0.000000e+00 0.000000e+00
7.500000e+01 2.500000e+01 0.000000e+00
7.500000e+01 0.000000e+00 2.500000e+01
7.500000e+01 2.500000e+01 2.500000e+01
1.000000e+02 2.500000e+01 0.000000e+00
1.000000e+02 0.000000e+00 2.500000e+01
1.000000e+02 2.500000e+01 2.500000e+01
7.500000e+01 5.000000e+01 0.000000e+00
1.000000e+02 5.000000e+01 0.000000e+00
7.500000e+01 5.000000e+01 2.500000e+01
1.000000e+02 5.000000e+01 2.500000e+01
7.500000e+01 0.000000e+00 5.000000e+01
7.500000e+01 2.500000e+01 5.000000e+01
1.000000e+02 0.000000e+00 5.000000e+01
1.000000e+02 2.500000e+01 5.000000e+01
7.500000e+01 5.000000e+01 5.000000e+01
1.000000e+02 5.000000e+01 5.000000e+01
5.000000e+01 7.500000e+01 0.000000e+00
7.500000e+01 7.500000e+01 0.000000e+00
5.000000e+01 7.500000e+01 2.500000e+01
7.500000e+01 7.500000e+01 2.500000e+01
1.000000e+02 7.500000e+01 0.000000e+00
1.000000e+02 7.500000e+01 2.500000e+01
7.500000e+01 1.000000e+02 0.000000e+00
1.000000e+02 1.000000e+02 0.000000e+00
7.500000e+01 1.000000e+02 2.500000e+01
1.000000e+02 1.000000e+02 2.500000e+01
5.000000e+01 1.000000e+02 0.000000e+00
5.000000e+01 1.000000e+02 2.500000e+01
5.000000e+01 7.500000e+01 5.000000e+01
7.500000e+01 7.500000e+01 5.000000e+01
1.000000e+02 7.500000e+01 5.000000e+01
7.500000e+01 1.000000e+02 5.000000e+01
1.000000e+02 1.000000e+02 5.000000e+01
5.000000e+01 1.000000e+02 5.000000e+01
0.000000e+00 7.500000e+01 0.000000e+00
2.500000e+01 7.500000e+01 0.000000e+00
0.000000e+00 7.500000e+01 2.500000e+01
2.500000e+01 7.500000e+01 2.500000e+01
2.500000e+01 1.000000e+02 0.000000e+00
2.500000e+01 1.000000e+02 2.500000e+01
0.000000e+00 1.000000e+02 2.500000e+01
0.000000e+00 7.500000e+01 5.000000e+01
2.500000e+01 7.500000e+01 5.000000e+01
2.500000e+01 1.000000e+02 5.000000e+01
0.000000e+00 0.000000e+00 7.500000e+01
2.500000e+01 0.000000e+00 7.500000e+01
0.000000e+00 2.500000e+01 7.500000e+01
2.500000e+01 2.500000e+01 7.500000e+01
5.000000e+01 0.000000e+00 7.500000e+01
5.000000e+01 2.500000e+01 7.500000e+01
2.500000e+01 5.000000e+01 7.500000e+01
5.000000e+01 5.000000e+01 7.500000e+01
0.000000e+00 5.000000e+01 7.500000e+01
2.500000e+01 0.000000e+00 1.000000e+02
0.000000e+00 2.500000e+01 1.000000e+02
2.500000e+01 2.500000e+01 1.000000e+02
5.000000e+01 0.000000e+00 1.000000e+02
5.000000e+01 2.500000e+01 1.000000e+02
2.500000e+01 5.000000e+01 1.000000e+02
5.000000e+01 5.000000e+01 1.000000e+02
7.500000e+01 0.000000e+00 7.500000e+01
7.500000e+01 2.500000e+01 7.500000e+01
1.000000e+02 0.000000e+00 7.500000e+01
1.000000e+02 2.500000e+01 7.500000e+01
7.500000e+01 5.000000e+01 7.500000e+01
1.000000e+02 5.000000e+01 7.500000e+01
7.500000e+01 0.000000e+00 1.000000e+02
7.500000e+01 2.500000e+01 1.000000e+02
1.000000e+02 0.000000e+00 1.000000e+02
1.000000e+02 2.500000e+01 1.000000e+02
7.500000e+01 5.000000e+01 1.000000e+02
1.000000e+02 5.000000e+01 1.000000e+02
5.000000e+01 7.500000e+01 7.500000e+01
7.500000e+01 7.500000e+01 7.500000e+01
1.000000e+02 7.500000e+01 7.500000e+01
7.500000e+01 1.000000e+02 7.500000e+01
1.000000e+02 1.000000e+02 7.500000e+01
5.000000e+01 1.000000e+02 7.500000e+01
5.000000e+01 7.500000e+01 1.000000e+02
7.500000e+01 7.500000e+01 1.000000e+02
1.000000e+02 7.500000e+01 1.000000e+02
7.500000e+01 1.000000e+02 1.000000e+02
1.000000e+02 1.000000e+02 1.000000e+02
5.000000e+01 1.000000e+02 1.000000e+02
0.000000e+00 7.500000e+01 7.500000e+01
2.500000e+01 7.500000e+01 7.500000e+01
2.500000e+01 1.000000e+02 7.500000e+01
0.000000e+00 1.000000e+02 7.500000e+01
0.000000e+00 7.500000e+01 1.000000e+02
2.500000e+01 7.500000e+01 1.000000e+02
2.500000e+01 1.000000e+02 1.000000e+02
2.500000e+01 -1.000000e+02 0.000000e+00
0.000000e+00 -7.500000e+01 0.000000e+00
2.500000e+01 -7.500000e+01 0.000000e+00
0.000000e+00 -1.000000e+02 2.500000e+01
2.500000e+01 -1.000000e+02 2.500000e+01
0.000000e+00 -7.500000e+01 2.500000e+01
2.500000e+01 -7.500000e+01 2.500000e+01
5.000000e+01 -7.500000e+01 0.000000e+00
5.000000e+01 -1.000000e+02 2.500000e+01
5.000000e+01 -7.500000e+01 2.500000e+01
2.500000e+01 -5.000000e+01 0.000000e+00
2.500000e+01 -5.000000e+01 2.500000e+01
5.000000e+01 -5.000000e+01 2.500000e+01
0.000000e+00 -5.000000e+01 2.500000e+01
2.500000e+01 -1.000000e+02 5.000000e+01
0.000000e+00 -7.500000e+01 5.000000e+01
2.500000e+01 -7.500000e+01 5.000000e+01
5.000000e+01 -1.000000e+02 5.000000e+01
5.000000e+01 -7.500000e+01 5.000000e+01
2.500000e+01 -5.000000e+01 5.000000e+01
5.000000e+01 -5.000000e+01 5.000000e+01
7.500000e+01 -1.000000e+02 0.000000e+00
7.500000e+01 -7.500000e+01 0.000000e+00
7.500000e+01 -1.000000e+02 2.500000e+01
7.500000e+01 -7.500000e+01 2.500000e+01
1.000000e+02 -7.500000e+01 0.000000e+00
1.000000e+02 -1.000000e+02 2.500000e+01
1.000000e+02 -7.500000e+01 2.500000e+01
7.500000e+01 -5.000000e+01 0.000000e+00
7.500000e+01 -5.000000e+01 2.500000e+01
1.000000e+02 -5.000000e+01 2.500000e+01
7.500000e+01 -1.000000e+02 5.000000e+01
7.500000e+01 -7.500000e+01 5.000000e+01
1.000000e+02 -1.000000e+02 5.000000e+01
1.000000e+02 -7.500000e+01 5.000000e+01
7.500000e+01 -5.000000e+01 5.000000e+01
1.000000e+02 -5.000000e+01 5.000000e+01
5.000000e+01 -2.500000e+01 0.000000e+00
7.500000e+01 -2.500000e+01 0.000000e+00
5.000000e+01 -2.500000e+01 2.500000e+01
7.500000e+01 -2.500000e+01 2.500000e+01
1.000000e+02 -2.500000e+01 0.000000e+00
1.000000e+02 -2.500000e+01 2.500000e+01
5.000000e+01 -2.500000e+01 5.000000e+01
7.500000e+01 -2.500000e+01 5.000000e+01
1.000000e+02 -2.500000e+01 5.000000e+01
0.000000e+00 -2.500000e+01 0.000000e+00
2.500000e+01 -2.500000e+01 0.000000e+00
0.000000e+00 -2.500000e+01 2.500000e+01
2.500000e+01 -2.500000e+01 2.500000e+01
0.000000e+00 -2.500000e+01 5.000000e+01
2.500000e+01 -2.500000e+01 5.000000e+01
0.000000e+00 -1.000000e+02 7.500000e+01
2.500000e+01 -1.000000e+02 7.500000e+01
0.000000e+00 -7.500000e+01 7.500000e+01
2.500000e+01 -7.500000e+01 7.500000e+01
5.000000e+01 -1.000000e+02 7.500000e+01
5.000000e+01 -7.500000e+01 7.500000e+01
2.500000e+01 -5.000000e+01 7.500000e+01
5.000000e+01 -5.000000e+01 7.500000e+01
0.000000e+00 -5.000000e+01 7.500000e+01
2.500000e+01 -1.000000e+02 1.000000e+02
0.000000e+00 -7.500000e+01 1.000000e+02
2.500000e+01 -7.500000e+01 1.000000e+02
5.000000e+01 -1.000000e+02 1.000000e+02
5.000000e+01 -7.500000e+01 1.000000e+02
2.500000e+01 -5.000000e+01 1.000000e+02
5.000000e+01 -5.000000e+01 1.000000e+02
7.500000e+01 -1.000000e+02 7.500000e+01
7.500000e+01 -7.500000e+01 7.500000e+01
1.000000e+02 -1.000000e+02 7.500000e+01
1.000000e+02 -7.500000e+01 7.500000e+01
7.500000e+01 -5.000000e+01 7.500000e+01
1.000000e+02 -5.000000e+01 7.500000e+01
7.500000e+01 -1.000000e+02 1.000000e+02
7.500000e+01 -7.500000e+01 1.000000e+02
1.000000e+02 -1.000000e+02 1.000000e+02
1.000000e+02 -7.500000e+01 1.000000e+02
7.500000e+01 -5.000000e+01 1.000000e+02
1.000000e+02 -5.000000e+01 1.000000e+02
5.000000e+01 -2.500000e+01 7.500000e+01
7.500000e+01 -2.500000e+01 7.500000e+01
1.000000e+02 -2.500000e+01 7.500000e+01
5.000000e+01 -2.500000e+01 1.000000e+02
7.500000e+01 -2.500000e+01 1.000000e+02
1.000000e+02 -2.500000e+01 1.000000e+02
0.000000e+00 -2.500000e+01 7.500000e+01
2.500000e+01 -2.500000e+01 7.500000e+01
0.000000e+00 -2.500000e+01 1.000000e+02
2.500000e+01 -2.500000e+01 1.000000e+02
2.500000e+01 0.000000e+00 -1.000000e+02
0.000000e+00 2.500000e+01 -1.000000e+02
2.500000e+01 2.500000e+01 -1.000000e+02
0.000000e+00 0.000000e+00 -7.500000e+01
2.500000e+01 0.000000e+00 -7.500000e+01
0.000000e+00 2.500000e+01 -7.500000e+01
2.500000e+01 2.500000e+01 -7.500000e+01
5.000000e+01 2.500000e+01 -1.000000e+02
5.000000e+01 0.000000e+00 -7.500000e+01
5.000000e+01 2.500000e+01 -7.500000e+01
2.500000e+01 5.000000e+01 -1.000000e+02
5.000000e+01 5.000000e+01 -1.000000e+02
2.500000e+01 5.000000e+01 -7.500000e+01
5.000000e+01 5.000000e+01 -7.500000e+01
0.000000e+00 5.000000e+01 -7.500000e+01
2.500000e+01 0.000000e+00 -5.000000e+01
0.000000e+00 2.500000e+01 -5.000000e+01
2.500000e+01 2.500000e+01 -5.000000e+01
5.000000e+01 2.500000e+01 -5.000000e+01
2.500000e+01 5.000000e+01 -5.000000e+01
5.000000e+01 5.000000e+01 -5.000000e+01
7.500000e+01 0.000000e+00 -1.000000e+02
7.500000e+01 2.500000e+01 -1.000000e+02
7.500000e+01 0.000000e+00 -7.500000e+01
7.500000e+01 2.500000e+01 -7.500000e+01
1.000000e+02 2.500000e+01 -1.000000e+02
1.000000e+02 0.000000e+00 -7.500000e+01
1.000000e+02 2.500000e+01 -7.500000e+01
7.500000e+01 5.000000e+01 -1.000000e+02
1.000000e+02 5.000000e+01 -1.000000e+02
7.500000e+01 5.000000e+01 -7.500000e+01
1.000000e+02 5.000000e+01 -7.500000e+01
7.500000e+01 0.000000e+00 -5.000000e+01
7.500000e+01 2.500000e+01 -5.000000e+01
1.000000e+02 2.500000e+01 -5.000000e+01
7.500000e+01 5.000000e+01 -5.000000e+01
1.000000e+02 5.000000e+01 -5.000000e+01
5.000000e+01 7.500000e+01 -1.000000e+02
7.500000e+01 7.500000e+01 -1.000000e+02
5.000000e+01 7.500000e+01 -7.500000e+01
7.500000e+01 7.500000e+01 -7.500000e+01
1.000000e+02 7.500000e+01 -1.000000e+02
1.000000e+02 7.500000e+01 -7.500000e+01
7.500000e+01 1.000000e+02 -1.000000e+02
1.000000e+02 1.000000e+02 -1.000000e+02
7.500000e+01 1.000000e+02 -7.500000e+01
1.000000e+02 1.000000e+02 -7.500000e+01
5.000000e+01 1.000000e+02 -1.000000e+02
5.000000e+01 1.000000e+02 -7.500000e+01
5.000000e+01 7.500000e+01 -5.000000e+01
7.500000e+01 7.500000e+01 -5.000000e+01
1.000000e+02 7.500000e+01 -5.000000e+01
7.500000e+01 1.000000e+02 -5.000000e+01
1.000000e+02 1.000000e+02 -5.000000e+01
5.000000e+01 1.000000e+02 -5.000000e+01
0.000000e+00 7.500000e+01 -1.000000e+02
2.500000e+01 7.500000e+01 -1.000000e+02
0.000000e+00 7.500000e+01 -7.500000e+01
2.500000e+01 7.500000e+01 -7.500000e+01
2.500000e+01 1.000000e+02 -1.000000e+02
2.500000e+01 1.000000e+02 -7.500000e+01
0.000000e+00 1.000000e+02 -7.500000e+01
0.000000e+00 7.500000e+01 -5.000000e+01
2.500000e+01 7.500000e+01 -5.000000e+01
2.500000e+01 1.000000e+02 -5.000000e+01
0.000000e+00 0.000000e+00 -2.500000e+01
2.500000e+01 0.000000e+00 -2.500000e+01
0.000000e+00 2.500000e+01 -2.500000e+01
2.500000e+01 2.500000e+01 -2.500000e+01
5.000000e+01 0.000000e+00 -2.500000e+01
5.000000e+01 2.500000e+01 -2.500000e+01
2.500000e+01 5.000000e+01 -2.500000e+01
5.000000e+01 5.000000e+01 -2.500000e+01
0.000000e+00 5.000000e+01 -2.500000e+01
7.500000e+01 0.000000e+00 -2.500000e+01
7.500000e+01 2.500000e+01 -2.500000e+01
1.000000e+02 0.000000e+00 -2.500000e+01
1.000000e+02 2.500000e+01 -2.500000e+01
7.500000e+01 5.000000e+01 -2.500000e+01
1.000000e+02 5.000000e+01 -2.500000e+01
5.000000e+01 7.500000e+01 -2.500000e+01
7.500000e+01 7.500000e+01 -2.500000e+01
1.000000e+02 7.500000e+01 -2.500000e+01
7.500000e+01 1.000000e+02 -2.500000e+01
1.000000e+02 1.000000e+02 -2.500000e+01
5.000000e+01 1.000000e+02 -2.500000e+01
0.000000e+00 7.500000e+01 -2.500000e+01
2.500000e+01 7.500000e+01 -2.500000e+01
2.500000e+01 1.000000e+02 -2.500000e+01
0.000000e+00 1.000000e+02 -2.500000e+01

CELLS 232 2088
8 0 1 3 2 4 5 7 6
8 1 8 9 3 5 10 11 7
8 3 9 13 12 7 11 15 14
8 2 3 12 16 6 7 14 17
8 4 5 7 6 18 19 21 20
8 5 10 11 7 19 22 23 21
8 7 11 15 14 21 23 25 24
8 6 7 14 17 20 21 24 26
8 8 27 28 9 10 29 30 11
8 27 31 32 28 29 33 34 30
8 28 32 36 35 30 34 38 37
8 9 28 35 13 11 30 37 15
8 10 29 30 11 22 39 40 23
8 29 33 34 30 39 41 42 40
8 30 34 38 37 40 42 44 43
8 11 30 37 15 23 40 43 25
8 16 12 46 45 17 14 48 47
8 12 13 49 46 14 15 50 48
8 46 49 52 51 48 50 54 53
8 45 46 51 55 47 48 53 56
8 17 14 48 47 26 24 58 57
8 14 15 50 48 24 25 59 58
8 48 50 54 53 58 59 61 60
8 47 48 53 56 57 58 60 62
8 18 19 21 20 63 64 66 65
8 19 22 23 21 64 67 68 66
8 21 23 25 24 66 68 70 69
8 20 21 24 26 65 66 69 71
8 63 64 66 65 72 73 75 74
8 64 67 68 66 73 76 77 75
8 66 68 70 69 75 77 79 78
8 65 66 69 71 74 75 78 80
8 26 24 58 57 71 69 82 81
8 24 25 59 58 69 70 83 82
8 58 59 61 60 82 83 85 84
8 57 58 60 62 81 82 84 86
8 71 69 82 81 80 78 88 87
8 69 70 83 82 78 79 89 88
8 82 83 85 84 88 89 91 90
8 81 82 84 86 87 88 90 92
8 25 93 95 94 96 97 99 98
8 93 43 100 95 97 101 102 99
8 95 100 104 103 99 102 106 105
8 94 95 103 59 98 99 105 107
8 96 97 99 98 70 108 110 109
8 97 101 102 99 108 111 112 110
8 99 102 106 105 110 112 114 113
8 98 99 105 107 109 110 113 83
8 43 115 116 100 101 117 118 102
8 115 44 119 116 117 120 121 118
8 116 119 123 122 118 121 125 124
8 100 116 122 104 102 118 124 106
8 101 117 118 102 111 126 127 112
8 117 120 121 118 126 128 129 127
8 118 121 125 124 127 129 131 130
8 102 118 124 106 112 127 130 114
8 104 122 133 132 106 124 135 134
8 122 123 136 133 124 125 137 135
8 133 136 139 138 135 137 141 140
8 132 133 138 142 134 135 140 143
8 106 124 135 134 114 130 145 144
8 124 125 137 135 130 131 146 145
8 135 137 141 140 145 146 148 147
8 134 135 140 143 144 145 147 149
8 59 103 151 150 107 105 153 152
8 103 104 132 151 105 106 134 153
8 151 132 142 154 153 134 143 155
8 150 151 154 61 152 153 155 156
8 107 105 153 152 83 113 158 157
8 105 106 134 153 113 114 144 158
8 153 134 143 155 158 144 149 159
8 152 153 155 156 157 158 159 85
8 70 108 110 109 160 161 163 162
8 108 111 112 110 161 164 165 163
8 110 112 114 113 163 165 167 166
8 109 110 113 83 162 163 166 168
8 160 161 163 162 79 169 171 170
8 161 164 165 163 169 172 173 171
8 163 165 167 166 171 173 175 174
8 162 163 166 168 170 171 174 89
8 111 126 127 112 164 176 177 165
8 126 128 129 127 176 178 179 177
8 127 129 131 130 177 179 181 180
8 112 127 130 114 165 177 180 167
8 164 176 177 165 172 182 183 173
8 176 178 179 177 182 184 185 183
8 177 179 181 180 183 185 187 186
8 165 177 180 167 173 183 186 175
8 114 130 145 144 167 180 189 188
8 130 131 146 145 180 181 190 189
8 145 146 148 147 189 190 192 191
8 144 145 147 149 188 189 191 193
8 167 180 189 188 175 186 195 194
8 180 181 190 189 186 187 196 195
8 189 190 192 191 195 196 198 197
8 188 189 191 193 194 195 197 199
8 83 113 158 157 168 166 201 200
8 113 114 144 158 166 167 188 201
8 158 144 149 159 201 188 193 202
8 157 158 159 85 200 201 202 203
8 168 166 201 200 89 174 205 204
8 166 167 188 201 174 175 194 205
8 201 188 193 202 205 194 199 206
8 200 201 202 203 204 205 206 91
8 22 207 209 208 210 211 213 212
8 207 39 214 209 211 215 216 213
8 209 214 40 217 213 216 219 218
8 208 209 217 23 212 213 218 220
8 210 211 213 212 67 221 223 222
8 211 215 216 213 221 224 225 223
8 213 216 219 218 223 225 227 226
8 212 213 218 220 222 223 226 68
8 39 228 229 214 215 230 231 216
8 228 41 232 229 230 233 234 231
8 229 232 42 235 231 234 237 236
8 214 229 235 40 216 231 236 219
8 215 230 231 216 224 238 239 225
8 230 233 234 231 238 240 241 239
8 231 234 237 236 239 241 243 242
8 216 231 236 219 225 239 242 227
8 40 235 245 244 219 236 247 246
8 235 42 248 245 236 237 249 247
8 245 248 44 115 247 249 120 117
8 244 245 115 43 246 247 117 101
8 219 236 247 246 227 242 251 250
8 236 237 249 247 242 243 252 251
8 247 249 120 117 251 252 128 126
8 246 247 117 101 250 251 126 111
8 23 217 254 253 220 218 256 255
8 217 40 244 254 218 219 246 256
8 254 244 43 93 256 246 101 97
8 253 254 93 25 255 256 97 96
8 220 218 256 255 68 226 258 257
8 218 219 246 256 226 227 250 258
8 256 246 101 97 258 250 111 108
8 255 256 97 96 257 258 108 70
8 67 221 223 222 259 260 262 261
8 221 224 225 223 260 263 264 262
8 223 225 227 226 262 264 266 265
8 222 223 226 68 261 262 265 267
8 259 260 262 261 76 268 270 269
8 260 263 264 262 268 271 272 270
8 262 264 266 265 270 272 274 273
8 261 262 265 267 269 270 273 77
8 224 238 239 225 263 275 276 264
8 238 240 241 239 275 277 278 276
8 239 241 243 242 276 278 280 279
8 225 239 242 227 264 276 279 266
8 263 275 276 264 271 281 282 272
8 275 277 278 276 281 283 284 282
8 276 278 280 279 282 284 286 285
8 264 276 279 266 272 282 285 274
8 227 242 251 250 266 279 288 287
8 242 243 252 251 279 280 289 288
8 251 252 128 126 288 289 178 176
8 250 251 126 111 287 288 176 164
8 266 279 288 287 274 285 291 290
8 279 280 289 288 285 286 292 291
8 288 289 178 176 291 292 184 182
8 287 288 176 164 290 291 182 172
8 68 226 258 257 267 265 294 293
8 226 227 250 258 265 266 287 294
8 258 250 111 108 294 287 164 161
8 257 258 108 70 293 294 161 160
8 267 265 294 293 77 273 296 295
8 265 266 287 294 273 274 290 296
8 294 287 164 161 296 290 172 169
8 293 294 161 160 295 296 169 79
8 13 297 299 298 300 301 303 302
8 297 35 304 299 301 305 306 303
8 299 304 308 307 303 306 310 309
8 298 299 307 49 302 303 309 311
8 300 301 303 302 15 312 314 313
8 301 305 306 303 312 37 315 314
8 303 306 310 309 314 315 317 316
8 302 303 309 311 313 314 316 50
8 35 318 319 304 305 320 321 306
8 318 36 322 319 320 323 324 321
8 319 322 326 325 321 324 328 327
8 304 319 325 308 306 321 327 310
8 305 320 321 306 37 329 330 315
8 320 323 324 321 329 38 331 330
8 321 324 328 327 330 331 333 332
8 306 321 327 310 315 330 332 317
8 308 325 335 334 310 327 337 336
8 325 326 338 335 327 328 339 337
8 335 338 341 340 337 339 343 342
8 334 335 340 344 336 337 342 345
8 310 327 337 336 317 332 347 346
8 327 328 339 337 332 333 348 347
8 337 339 343 342 347 348 350 349
8 336 337 342 345 346 347 349 351
8 49 307 353 352 311 309 355 354
8 307 308 334 353 309 310 336 355
8 353 334 344 356 355 336 345 357
8 352 353 356 52 354 355 357 358
8 311 309 355 354 50 316 360 359
8 309 310 336 355 316 317 346 360
8 355 336 345 357 360 346 351 361
8 354 355 357 358 359 360 361 54
8 15 312 314 313 362 363 365 364
8 312 37 315 314 363 366 367 365
8 314 315 317 316 365 367 369 368
8 313 314 316 50 364 365 368 370
8 362 363 365 364 25 93 95 94
8 363 366 367 365 93 43 100 95
8 365 367 369 368 95 100 104 103
8 364 365 368 370 94 95 103 59
8 37 329 330 315 366 371 372 367
8 329 38 331 330 371 373 374 372
8 330 331 333 332 372 374 376 375
8 315 330 332 317 367 372 375 369
8 366 371 372 367 43 115 116 100
8 371 373 374 372 115 44 119 116
8 372 374 376 375 116 119 123 122
8 367 372 375 369 100 116 122 104
8 317 332 347 346 369 375 378 377
8 332 333 348 347 375 376 379 378
8 347 348 350 349 378 379 381 380
8 346 347 349 351 377 378 380 382
8 369 375 378 377 104 122 133 132
8 375 376 379 378 122 123 136 133
8 378 379 381 380 133 136 139 138
8 377 378 380 382 132 133 138 142
8 50 316 360 359 370 368 384 383
8 316 317 346 360 368 369 377 384
8 360 346 351 361 384 377 382 385
8 359 360 361 54 383 384 385 386
8 370 368 384 383 59 103 151 150
8 368 369 377 384 103 104 132 151
8 384 377 382 385 151 132 142 154
8 383 384 385 386 150 151 154 61

CELL_TYPES 232
12
12
12
12
12
12
12
12
12
12
12
12
12
12
12
12
12
12
12
12
12
12
12
12
12
12
12
12
12
12
12
12
12
12
12
12
12
12
12
12
12
12
12
12
12
12
12
12
12
12
12
12
12
12
12
12
12
12
12
12
12
12
12
12
12
12
12
12
12
12
12
12
12
12
12
12
12
12
12
12
12
12
12
12
12
12
12
12
12
12
12
12
12
12
12
12
12
12
12
12
12
12
12
12
12
12
12
12
12
12
12
12
12
12
12
12
12
12
12
12
12
12
12
12
12
12
12
12
12
12
12
12
12
12
12
12
12
12
12
12
12
12
12
12
12
12
12
12
12
12
12
12
12
12
12
12
12
12
12
12
12
12
12
12
12
12
12
12
12
12
12
12
12
12
12
12
12
12
12
12
12
12
12
12
12
12
12
12
12
12
12
12
12
12
12
12
12
12
12
12
12
12
12
12
12
12
12
12
12
12
12
12
12
12
12
12
12
12
12
12
12
12
12
12
12
12
12
12
12
12
12
12

POINT_DATA 387
SCALARS RSolution float 1
LOOKUP_TABLE default
0.000000e+00
0.000000e+00
0.000000e+00
0.000000e+00
0.000000e+00
0.000000e+00
0.000000e+00
-7.410846e-11
0.000000e+00
0.000000e+00
0.000000e+00
-4.565205e-10
0.000000e+00
0.000000e+00
3.292380e-04
3.110258e-03
0.000000e+00
0.000000e+00
0.000000e+00
0.000000e+00
0.000000e+00
-3.292384e-04
0.000000e+00
-3.110258e-03
2.254720e-10
-1.875022e-12
0.000000e+00
0.000000e+00
0.000000e+00
0.000000e+00
4.485359e-11
0.000000e+00
0.000000e+00
0.000000e+00
0.000000e+00
0.000000e+00
0.000000e+00
1.493702e-04
0.000000e+00
0.000000e+00
-1.493694e-04
0.000000e+00
0.000000e+00
-7.354894e-10
0.000000e+00
0.000000e+00
0.000000e+00
0.000000e+00
5.662481e-05
0.000000e+00
1.724169e-04
0.000000e+00
0.000000e+00
0.000000e+00
0.000000e+00
0.000000e+00
0.000000e+00
0.000000e+00
6.204624e-06
-1.524899e-03
0.000000e+00
0.000000e+00
0.000000e+00
0.000000e+00
0.000000e+00
0.000000e+00
-5.662520e-05
0.000000e+00
-1.724169e-04
-6.205088e-06
1.524898e-03
0.000000e+00
0.000000e+00
0.000000e+00
0.000000e+00
0.000000e+00
0.000000e+00
0.000000e+00
0.000000e+00
0.000000e+00
0.000000e+00
0.000000e+00
2.471446e-10
8.752900e-10
0.000000e+00
0.000000e+00
0.000000e+00
0.000000e+00
0.000000e+00
0.000000e+00
0.000000e+00
0.000000e+00
0.000000e+00
-3.686822e-10
-7.624493e-04
-2.937912e-03
7.624488e-04
2.937914e-03
-1.447691e-11
2.286937e-10
-4.855764e-04
4.855767e-04
-3.147700e-10
-1.208312e-03
-3.864970e-04
-6.254547e-04
-1.871334e-04
-7.624488e-04
1.208312e-03
7.624493e-04
6.254546e-04
3.864969e-04
1.871336e-04
2.991168e-10
4.581968e-11
-3.677447e-10
-2.445109e-05
2.445070e-05
5.790909e-11
0.000000e+00
0.000000e+00
0.000000e+00
-3.568451e-05
0.000000e+00
-1.881397e-05
0.000000e+00
3.568466e-05
1.881385e-05
0.000000e+00
0.000000e+00
4.109809e-11
0.000000e+00
-8.826222e-05
-1.789303e-05
-6.316826e-05
-1.183730e-05
0.000000e+00
0.000000e+00
0.000000e+00
0.000000e+00
0.000000e+00
0.000000e+00
0.000000e+00
0.000000e+00
-1.765767e-05
-3.353106e-06
0.000000e+00
0.000000e+00
0.000000e+00
0.000000e+00
-7.624493e-04
-2.314566e-04
-3.812244e-04
-1.696977e-04
0.000000e+00
0.000000e+00
0.000000e+00
4.376450e-10
-5.509284e-05
0.000000e+00
7.624488e-04
2.314569e-04
3.812246e-04
1.696979e-04
8.826196e-05
6.316839e-05
5.509294e-05
1.765762e-05
4.376450e-10
0.000000e+00
0.000000e+00
0.000000e+00
0.000000e+00
0.000000e+00
0.000000e+00
0.000000e+00
1.789255e-05
1.183687e-05
0.000000e+00
0.000000e+00
3.353238e-06
0.000000e+00
0.000000e+00
0.000000e+00
0.000000e+00
0.000000e+00
0.000000e+00
0.000000e+00
-1.405153e-11
6.490102e-11
0.000000e+00
0.000000e+00
0.000000e+00
0.000000e+00
0.000000e+00
0.000000e+00
0.000000e+00
0.000000e+00
0.000000e+00
0.000000e+00
2.188225e-10
3.819674e-13
0.000000e+00
0.000000e+00
0.000000e+00
0.000000e+00
0.000000e+00
0.000000e+00
-1.555129e-03
-8.149069e-04
0.000000e+00
0.000000e+00
-8.206688e-04
-2.821865e-04
-7.468470e-05
0.000000e+00
-9.325660e-05
-1.629814e-03
-7.591642e-04
-1.359378e-04
-1.641338e-03
0.000000e+00
-8.620846e-05
-9.654415e-05
0.000000e+00
-2.071865e-05
-7.472160e-05
3.731829e-06
0.000000e+00
-3.734235e-05
0.000000e+00
-4.601509e-06
0.000000e+00
0.000000e+00
0.000000e+00
-7.468470e-05
7.808936e-06
0.000000e+00
0.000000e+00
-3.158221e-06
0.000000e+00
0.000000e+00
5.075082e-06
0.000000e+00
-7.468507e-05
-3.734253e-05
2.428062e-04
2.462869e-05
0.000000e+00
0.000000e+00
1.975729e-04
2.944266e-05
0.000000e+00
-1.555129e-03
-8.149071e-04
-4.394444e-04
2.196523e-04
6.762404e-04
5.515495e-04
0.000000e+00
0.000000e+00
-4.310423e-05
-5.243808e-06
0.000000e+00
-1.775744e-06
4.483086e-05
1.342583e-05
-8.620846e-05
0.000000e+00
0.000000e+00
0.000000e+00
0.000000e+00
0.000000e+00
0.000000e+00
0.000000e+00
0.000000e+00
1.064399e-07
0.000000e+00
0.000000e+00
3.675417e-06
0.000000e+00
0.000000e+00
0.000000e+00
0.000000e+00
0.000000e+00
0.000000e+00
0.000000e+00
5.901388e-05
1.186636e-05
0.000000e+00
0.000000e+00
0.000000e+00
0.000000e+00
3.381202e-04
1.571146e-04
0.000000e+00
0.000000e+00
0.000000e+00
0.000000e+00
0.000000e+00
1.555129e-03
8.149071e-04
8.206688e-04
2.821866e-04
0.000000e+00
7.468508e-05
9.325647e-05
0.000000e+00
0.000000e+00
9.654393e-05
2.071848e-05
8.620846e-05
1.629814e-03
1.641338e-03
7.591642e-04
1.359382e-04
7.472160e-05
-3.731687e-06
0.000000e+00
0.000000e+00
3.734254e-05
4.601552e-06
0.000000e+00
0.000000e+00
0.000000e+00
0.000000e+00
0.000000e+00
3.158165e-06
0.000000e+00
7.468508e-05
-7.808915e-06
0.000000e+00
-5.075417e-06
0.000000e+00
0.000000e+00
0.000000e+00
1.775773e-06
-1.065721e-07
0.000000e+00
0.000000e+00
0.000000e+00
0.000000e+00
0.000000e+00
0.000000e+00
0.000000e+00
0.000000e+00
-1.342611e-05
-3.675320e-06
0.000000e+00
0.000000e+00
0.000000e+00
0.000000e+00
0.000000e+00
0.000000e+00
4.310423e-05
5.243407e-06
0.000000e+00
0.000000e+00
0.000000e+00
8.620846e-05
-4.483113e-05
0.000000e+00
1.555129e-03
8.149069e-04
4.394442e-04
-2.196522e-04
7.468471e-05
-2.428062e-04
-5.515490e-04
-1.975729e-04
-6.762408e-04
3.734236e-05
-2.462837e-05
0.000000e+00
0.000000e+00
-2.944279e-05
0.000000e+00
-5.901378e-05
-1.186657e-05
0.000000e+00
0.000000e+00
0.000000e+00
0.000000e+00
-3.381204e-04
-1.571149e-04
0.000000e+00
0.000000e+00
