# vtk DataFile Version 2.0

ASCII

DATASET UNSTRUCTURED_GRID
POINTS 2147 float
0.000000e+00 -1.000000e+02 0.000000e+00
5.000000e+01 -1.000000e+02 0.000000e+00
0.000000e+00 -5.000000e+01 0.000000e+00
5.000000e+01 -5.000000e+01 0.000000e+00
0.000000e+00 -1.000000e+02 5.000000e+01
5.000000e+01 -1.000000e+02 5.000000e+01
0.000000e+00 -5.000000e+01 5.000000e+01
5.000000e+01 -5.000000e+01 5.000000e+01
1.000000e+02 -1.000000e+02 0.000000e+00
1.000000e+02 -5.000000e+01 0.000000e+00
1.000000e+02 -1.000000e+02 5.000000e+01
1.000000e+02 -5.000000e+01 5.000000e+01
5.000000e+01 0.000000e+00 0.000000e+00
1.000000e+02 0.000000e+00 0.000000e+00
5.000000e+01 0.000000e+00 5.000000e+01
1.000000e+02 0.000000e+00 5.000000e+01
0.000000e+00 -1.000000e+02 1.000000e+02
5.000000e+01 -1.000000e+02 1.000000e+02
0.000000e+00 -5.000000e+01 1.000000e+02
5.000000e+01 -5.000000e+01 1.000000e+02
1.000000e+02 -1.000000e+02 1.000000e+02
1.000000e+02 -5.000000e+01 1.000000e+02
5.000000e+01 0.000000e+00 1.000000e+02
1.000000e+02 0.000000e+00 1.000000e+02
0.000000e+00 0.000000e+00 5.000000e+01
0.000000e+00 0.000000e+00 1.000000e+02
5.000000e+01 5.000000e+01 0.000000e+00
1.000000e+02 5.000000e+01 0.000000e+00
5.000000e+01 5.000000e+01 5.000000e+01
1.000000e+02 5.000000e+01 5.000000e+01
5.000000e+01 1.000000e+02 0.000000e+00
1.000000e+02 1.000000e+02 0.000000e+00
5.000000e+01 1.000000e+02 5.000000e+01
1.000000e+02 1.000000e+02 5.000000e+01
0.000000e+00 5.000000e+01 0.000000e+00
0.000000e+00 1.000000e+02 0.000000e+00
0.000000e+00 5.000000e+01 5.000000e+01
0.000000e+00 1.000000e+02 5.000000e+01
0.000000e+00 5.000000e+01 1.000000e+02
5.000000e+01 5.000000e+01 1.000000e+02
1.000000e+02 5.000000e+01 1.000000e+02
5.000000e+01 1.000000e+02 1.000000e+02
1.000000e+02 1.000000e+02 1.000000e+02
0.000000e+00 1.000000e+02 1.000000e+02
0.000000e+00 -1.000000e+02 -1.000000e+02
5.000000e+01 -1.000000e+02 -1.000000e+02
0.000000e+00 -5.000000e+01 -1.000000e+02
5.000000e+01 -5.000000e+01 -1.000000e+02
0.000000e+00 -1.000000e+02 -5.000000e+01
5.000000e+01 -1.000000e+02 -5.000000e+01
0.000000e+00 -5.000000e+01 -5.000000e+01
5.000000e+01 -5.000000e+01 -5.000000e+01
1.000000e+02 -1.000000e+02 -1.000000e+02
1.000000e+02 -5.000000e+01 -1.000000e+02
1.000000e+02 -1.000000e+02 -5.000000e+01
1.000000e+02 -5.000000e+01 -5.000000e+01
5.000000e+01 0.000000e+00 -1.000000e+02
1.000000e+02 0.000000e+00 -1.000000e+02
5.000000e+01 0.000000e+00 -5.000000e+01
1.000000e+02 0.000000e+00 -5.000000e+01
0.000000e+00 0.000000e+00 -1.000000e+02
0.000000e+00 0.000000e+00 -5.000000e+01
0.000000e+00 -5.000000e+01 2.500000e+01
2.500000e+01 -5.000000e+01 2.500000e+01
0.000000e+00 -2.500000e+01 2.500000e+01
2.500000e+01 -2.500000e+01 2.500000e+01
2.500000e+01 -5.000000e+01 5.000000e+01
0.000000e+00 -2.500000e+01 5.000000e+01
2.500000e+01 -2.500000e+01 5.000000e+01
5.000000e+01 -5.000000e+01 2.500000e+01
5.000000e+01 -2.500000e+01 2.500000e+01
5.000000e+01 -2.500000e+01 5.000000e+01
2.500000e+01 -5.000000e+01 -5.000000e+01
0.000000e+00 -2.500000e+01 -5.000000e+01
2.500000e+01 -2.500000e+01 -5.000000e+01
0.000000e+00 -5.000000e+01 -2.500000e+01
2.500000e+01 -5.000000e+01 -2.500000e+01
0.000000e+00 -2.500000e+01 -2.500000e+01
2.500000e+01 -2.500000e+01 -2.500000e+01
5.000000e+01 -2.500000e+01 -5.000000e+01
5.000000e+01 -5.000000e+01 -2.500000e+01
5.000000e+01 -2.500000e+01 -2.500000e+01
2.500000e+01 0.000000e+00 -5.000000e+01
2.500000e+01 0.000000e+00 -2.500000e+01
5.000000e+01 0.000000e+00 -2.500000e+01
0.000000e+00 0.000000e+00 -2.500000e+01
2.500000e+01 2.500000e+01 0.000000e+00
5.000000e+01 2.500000e+01 0.000000e+00
2.500000e+01 5.000000e+01 0.000000e+00
2.500000e+01 2.500000e+01 2.500000e+01
5.000000e+01 2.500000e+01 2.500000e+01
2.500000e+01 5.000000e+01 2.500000e+01
5.000000e+01 5.000000e+01 2.500000e+01
0.000000e+00 2.500000e+01 0.000000e+00
0.000000e+00 2.500000e+01 2.500000e+01
0.000000e+00 5.000000e+01 2.500000e+01
2.500000e+01 2.500000e+01 5.000000e+01
5.000000e+01 2.500000e+01 5.000000e+01
2.500000e+01 5.000000e+01 5.000000e+01
0.000000e+00 2.500000e+01 5.000000e+01
2.500000e+01 -2.500000e+01 0.000000e+00
3.750000e+01 -2.500000e+01 0.000000e+00
2.500000e+01 -1.250000e+01 0.000000e+00
3.750000e+01 -1.250000e+01 0.000000e+00
2.500000e+01 -2.500000e+01 1.250000e+01
3.750000e+01 -2.500000e+01 1.250000e+01
2.500000e+01 -1.250000e+01 1.250000e+01
3.750000e+01 -1.250000e+01 1.250000e+01
5.000000e+01 -2.500000e+01 0.000000e+00
5.000000e+01 -1.250000e+01 0.000000e+00
5.000000e+01 -2.500000e+01 1.250000e+01
5.000000e+01 -1.250000e+01 1.250000e+01
3.750000e+01 0.000000e+00 0.000000e+00
3.750000e+01 0.000000e+00 1.250000e+01
5.000000e+01 0.000000e+00 1.250000e+01
3.750000e+01 -2.500000e+01 2.500000e+01
2.500000e+01 -1.250000e+01 2.500000e+01
3.750000e+01 -1.250000e+01 2.500000e+01
5.000000e+01 -1.250000e+01 2.500000e+01
3.750000e+01 0.000000e+00 2.500000e+01
5.000000e+01 0.000000e+00 2.500000e+01
2.500000e+01 0.000000e+00 1.250000e+01
2.500000e+01 0.000000e+00 2.500000e+01
1.250000e+01 -2.500000e+01 -2.500000e+01
0.000000e+00 -1.250000e+01 -2.500000e+01
1.250000e+01 -1.250000e+01 -2.500000e+01
0.000000e+00 -2.500000e+01 -1.250000e+01
1.250000e+01 -2.500000e+01 -1.250000e+01
0.000000e+00 -1.250000e+01 -1.250000e+01
1.250000e+01 -1.250000e+01 -1.250000e+01
2.500000e+01 -1.250000e+01 -2.500000e+01
2.500000e+01 -2.500000e+01 -1.250000e+01
2.500000e+01 -1.250000e+01 -1.250000e+01
1.250000e+01 0.000000e+00 -2.500000e+01
1.250000e+01 0.000000e+00 -1.250000e+01
2.500000e+01 0.000000e+00 -1.250000e+01
0.000000e+00 0.000000e+00 -1.250000e+01
1.250000e+01 1.250000e+01 0.000000e+00
2.500000e+01 1.250000e+01 0.000000e+00
1.250000e+01 2.500000e+01 0.000000e+00
1.250000e+01 1.250000e+01 1.250000e+01
2.500000e+01 1.250000e+01 1.250000e+01
1.250000e+01 2.500000e+01 1.250000e+01
2.500000e+01 2.500000e+01 1.250000e+01
0.000000e+00 1.250000e+01 0.000000e+00
0.000000e+00 1.250000e+01 1.250000e+01
0.000000e+00 2.500000e+01 1.250000e+01
1.250000e+01 1.250000e+01 2.500000e+01
2.500000e+01 1.250000e+01 2.500000e+01
1.250000e+01 2.500000e+01 2.500000e+01
0.000000e+00 1.250000e+01 2.500000e+01
1.250000e+01 -5.000000e+01 0.000000e+00
0.000000e+00 -3.750000e+01 0.000000e+00
1.250000e+01 -3.750000e+01 0.000000e+00
0.000000e+00 -5.000000e+01 1.250000e+01
1.250000e+01 -5.000000e+01 1.250000e+01
0.000000e+00 -3.750000e+01 1.250000e+01
1.250000e+01 -3.750000e+01 1.250000e+01
2.500000e+01 -5.000000e+01 0.000000e+00
2.500000e+01 -3.750000e+01 0.000000e+00
2.500000e+01 -5.000000e+01 1.250000e+01
2.500000e+01 -3.750000e+01 1.250000e+01
1.250000e+01 -2.500000e+01 0.000000e+00
1.250000e+01 -2.500000e+01 1.250000e+01
0.000000e+00 -2.500000e+01 0.000000e+00
0.000000e+00 -2.500000e+01 1.250000e+01
1.250000e+01 -5.000000e+01 2.500000e+01
0.000000e+00 -3.750000e+01 2.500000e+01
1.250000e+01 -3.750000e+01 2.500000e+01
2.500000e+01 -3.750000e+01 2.500000e+01
1.250000e+01 -2.500000e+01 2.500000e+01
0.000000e+00 -1.250000e+01 2.500000e+01
1.250000e+01 -1.250000e+01 2.500000e+01
0.000000e+00 -2.500000e+01 3.750000e+01
1.250000e+01 -2.500000e+01 3.750000e+01
0.000000e+00 -1.250000e+01 3.750000e+01
1.250000e+01 -1.250000e+01 3.750000e+01
2.500000e+01 -2.500000e+01 3.750000e+01
2.500000e+01 -1.250000e+01 3.750000e+01
1.250000e+01 0.000000e+00 2.500000e+01
1.250000e+01 0.000000e+00 3.750000e+01
2.500000e+01 0.000000e+00 3.750000e+01
0.000000e+00 0.000000e+00 2.500000e+01
0.000000e+00 0.000000e+00 3.750000e+01
1.250000e+01 -2.500000e+01 5.000000e+01
0.000000e+00 -1.250000e+01 5.000000e+01
1.250000e+01 -1.250000e+01 5.000000e+01
2.500000e+01 -1.250000e+01 5.000000e+01
1.250000e+01 0.000000e+00 5.000000e+01
2.500000e+01 0.000000e+00 5.000000e+01
1.875000e+01 -1.250000e+01 0.000000e+00
1.875000e+01 -6.250000e+00 0.000000e+00
2.500000e+01 -6.250000e+00 0.000000e+00
1.875000e+01 -1.250000e+01 6.250000e+00
2.500000e+01 -1.250000e+01 6.250000e+00
1.875000e+01 -6.250000e+00 6.250000e+00
2.500000e+01 -6.250000e+00 6.250000e+00
1.875000e+01 0.000000e+00 0.000000e+00
2.500000e+01 0.000000e+00 0.000000e+00
1.875000e+01 0.000000e+00 6.250000e+00
2.500000e+01 0.000000e+00 6.250000e+00
1.875000e+01 -1.250000e+01 1.250000e+01
1.875000e+01 -6.250000e+00 1.250000e+01
2.500000e+01 -6.250000e+00 1.250000e+01
1.875000e+01 0.000000e+00 1.250000e+01
1.250000e+01 -1.250000e+01 1.250000e+01
1.250000e+01 -6.250000e+00 1.250000e+01
1.250000e+01 -1.250000e+01 1.875000e+01
1.875000e+01 -1.250000e+01 1.875000e+01
1.250000e+01 -6.250000e+00 1.875000e+01
1.875000e+01 -6.250000e+00 1.875000e+01
2.500000e+01 -1.250000e+01 1.875000e+01
2.500000e+01 -6.250000e+00 1.875000e+01
1.875000e+01 0.000000e+00 1.875000e+01
2.500000e+01 0.000000e+00 1.875000e+01
1.250000e+01 0.000000e+00 1.250000e+01
1.250000e+01 0.000000e+00 1.875000e+01
1.875000e+01 -1.250000e+01 2.500000e+01
1.250000e+01 -6.250000e+00 2.500000e+01
1.875000e+01 -6.250000e+00 2.500000e+01
2.500000e+01 -6.250000e+00 2.500000e+01
1.875000e+01 0.000000e+00 2.500000e+01
1.875000e+01 -2.500000e+01 0.000000e+00
1.250000e+01 -1.875000e+01 0.000000e+00
1.875000e+01 -1.875000e+01 0.000000e+00
1.250000e+01 -2.500000e+01 6.250000e+00
1.875000e+01 -2.500000e+01 6.250000e+00
1.250000e+01 -1.875000e+01 6.250000e+00
1.875000e+01 -1.875000e+01 6.250000e+00
2.500000e+01 -1.875000e+01 0.000000e+00
2.500000e+01 -2.500000e+01 6.250000e+00
2.500000e+01 -1.875000e+01 6.250000e+00
1.250000e+01 -1.250000e+01 0.000000e+00
1.250000e+01 -1.250000e+01 6.250000e+00
1.875000e+01 -2.500000e+01 1.250000e+01
1.250000e+01 -1.875000e+01 1.250000e+01
1.875000e+01 -1.875000e+01 1.250000e+01
2.500000e+01 -1.875000e+01 1.250000e+01
-1.000000e+02 0.000000e+00 -1.000000e+02
-5.000000e+01 0.000000e+00 -1.000000e+02
-1.000000e+02 5.000000e+01 -1.000000e+02
-5.000000e+01 5.000000e+01 -1.000000e+02
-1.000000e+02 0.000000e+00 -5.000000e+01
-5.000000e+01 0.000000e+00 -5.000000e+01
-1.000000e+02 5.000000e+01 -5.000000e+01
-5.000000e+01 5.000000e+01 -5.000000e+01
0.000000e+00 5.000000e+01 -1.000000e+02
0.000000e+00 5.000000e+01 -5.000000e+01
[...]
POINT_DATA 2147
SCALARS Solution float 1
LOOKUP_TABLE default
0.000000e+00
0.000000e+00
6.773304e-06
-1.076896e-06
0.000000e+00
0.000000e+00
-2.888416e-07
2.108269e-07
0.000000e+00
0.000000e+00
0.000000e+00
0.000000e+00
-4.531144e-08
0.000000e+00
-1.076896e-06
0.000000e+00
0.000000e+00
0.000000e+00
0.000000e+00
0.000000e+00
0.000000e+00
0.000000e+00
0.000000e+00
0.000000e+00
6.773304e-06
0.000000e+00
2.540683e-06
0.000000e+00
1.010637e-07
0.000000e+00
0.000000e+00
0.000000e+00
0.000000e+00
0.000000e+00
-1.113606e-05
0.000000e+00
3.063204e-07
0.000000e+00
0.000000e+00
0.000000e+00
0.000000e+00
0.000000e+00
0.000000e+00
0.000000e+00
0.000000e+00
0.000000e+00
0.000000e+00
0.000000e+00
0.000000e+00
0.000000e+00
3.063203e-07
1.010635e-07
0.000000e+00
0.000000e+00
0.000000e+00
0.000000e+00
0.000000e+00
0.000000e+00
2.540684e-06
0.000000e+00
0.000000e+00
-1.113606e-05
3.242231e-06
1.404598e-06
-5.217335e-05
-1.003258e-05
-3.900737e-08
3.242231e-06
1.404598e-06
-4.330345e-07
-4.970691e-07
-4.330346e-07
2.036919e-07
-5.414868e-06
-2.046997e-06
3.539812e-06
1.525948e-06
5.745368e-06
-1.448327e-05
1.320874e-06
-4.879162e-07
3.798850e-07
-4.297686e-06
-2.577581e-05
1.247686e-06
1.900732e-04
-2.577581e-05
1.247686e-06
-4.297686e-06
-1.448326e-05
3.798849e-07
-2.046997e-06
1.320873e-06
1.900732e-04
5.745369e-06
-5.414867e-06
1.525948e-06
-4.879162e-07
2.036920e-07
3.539812e-06
-7.894491e-05
-9.520929e-06
-5.117733e-04
-4.985988e-06
-5.838916e-05
-6.413537e-06
-3.097842e-04
-1.207290e-05
-5.611036e-07
-3.032075e-07
-5.290864e-07
-4.161470e-07
1.288848e-05
-4.985988e-06
-3.032076e-07
-5.264827e-06
-5.838916e-05
-6.413538e-06
-5.290864e-07
-9.520928e-06
-5.611038e-07
-5.117733e-04
-7.894491e-05
-4.368949e-06
9.790931e-05
3.888988e-05
-1.148664e-04
-1.192528e-04
-1.801480e-04
-1.134385e-03
-2.012954e-05
-5.130458e-05
-2.249128e-04
8.214872e-05
-1.893953e-03
-3.479060e-04
2.779023e-03
-1.893953e-03
-3.479060e-04
8.214872e-05
-1.134385e-03
-2.249128e-04
3.888989e-05
-2.012954e-05
2.779023e-03
-1.801480e-04
9.790931e-05
-1.192528e-04
-5.130458e-05
-4.368948e-06
-1.148664e-04
4.810754e-06
-1.143524e-04
2.127173e-05
5.007768e-06
3.567085e-06
-6.940898e-05
8.845725e-06
2.848204e-06
-7.921788e-06
2.126401e-06
-5.640011e-06
-3.935654e-04
-2.583101e-04
-2.354781e-04
-1.438257e-04
2.323415e-06
-2.446556e-05
-1.438978e-05
-4.313993e-06
-3.110297e-05
-1.438257e-04
-2.583101e-04
-2.446556e-05
-1.438978e-05
-6.940898e-05
8.845725e-06
-4.313993e-06
-5.640012e-06
-3.935654e-04
2.127173e-05
-7.921787e-06
-2.354781e-04
-1.143524e-04
2.323415e-06
5.007768e-06
3.567084e-06
2.126401e-06
4.810754e-06
2.848204e-06
-1.564224e-03
-2.819052e-03
-6.858894e-04
-1.427530e-03
-4.107787e-04
-2.480098e-03
-7.572218e-04
-3.179091e-03
-8.600056e-04
-2.819052e-03
-6.858894e-04
-8.894468e-04
-1.427530e-03
-4.107787e-04
-1.564224e-03
-1.900514e-03
-3.366211e-03
-7.607850e-04
-4.117923e-04
-1.196790e-03
-6.154610e-04
-1.840867e-04
-2.397229e-04
-6.632364e-04
-2.953591e-04
-3.837588e-03
-1.274353e-03
-1.583496e-04
-3.259378e-04
-1.973024e-04
-6.866704e-05
-2.362552e-04
-2.362552e-04
-1.274353e-03
-6.632364e-04
-3.259378e-04
-1.973024e-04
-1.196790e-03
-6.154610e-04
-2.953591e-04
-6.866703e-05
-2.397229e-04
-3.837588e-03
-3.366211e-03
-1.583496e-04
-7.607850e-04
-4.117923e-04
-1.840867e-04
0.000000e+00
0.000000e+00
0.000000e+00
0.000000e+00
0.000000e+00
2.451393e-06
0.000000e+00
-4.208200e-07
0.000000e+00
1.411039e-06
0.000000e+00
0.000000e+00
0.000000e+00
0.000000e+00
0.000000e+00
0.000000e+00
0.000000e+00
-2.856732e-05
0.000000e+00
2.451394e-06
0.000000e+00
0.000000e+00
0.000000e+00
0.000000e+00
0.000000e+00
0.000000e+00
0.000000e+00
0.000000e+00
0.000000e+00
-2.723836e-07
0.000000e+00
0.000000e+00
0.000000e+00
1.938752e-06
0.000000e+00
1.938753e-06
0.000000e+00
-2.723837e-07
0.000000e+00
0.000000e+00
0.000000e+00
0.000000e+00
0.000000e+00
0.000000e+00
0.000000e+00
0.000000e+00
0.000000e+00
-4.689984e-07
0.000000e+00
0.000000e+00
0.000000e+00
0.000000e+00
0.000000e+00
0.000000e+00
0.000000e+00
0.000000e+00
0.000000e+00
-3.446888e-07
0.000000e+00
0.000000e+00
0.000000e+00
0.000000e+00
-1.447065e-04
-8.945871e-05
-3.509027e-04
-2.093308e-04
-3.421087e-05
-1.091488e-04
-2.056778e-05
-1.447065e-04
-8.945871e-05
-3.421087e-05
-2.211441e-03
-2.748337e-03
-4.042332e-03
-5.278481e-03
-8.089319e-04
-9.797571e-04
-1.251378e-03
-1.590719e-03
-2.010679e-04
-1.896519e-04
-2.577948e-04
-1.698630e-03
-3.145218e-04
-1.258902e-03
-3.145218e-04
-1.258902e-03
-1.698630e-03
-1.896519e-04
-2.577948e-04
-1.251378e-03
-1.590719e-03
-2.010679e-04
-8.089319e-04
-9.797571e-04
-5.278481e-03
-4.042332e-03
-4.862509e-06
-1.913333e-06
3.581705e-05
-3.878862e-06
1.035843e-06
1.141764e-06
4.710201e-07
-1.913333e-06
1.035842e-06
-4.862508e-06
4.356028e-06
-1.331428e-05
2.934433e-05
7.970318e-07
2.019632e-06
-6.258625e-06
5.469154e-06
5.443620e-04
-1.331428e-05
2.934434e-05
-3.167652e-07
7.970319e-07
2.019632e-06
4.356028e-06
-1.305796e-05
7.142689e-05
-6.112389e-06
1.184465e-05
-4.342330e-06
-2.162681e-06
1.089505e-06
8.331844e-07
2.186498e-06
1.696831e-08
1.696833e-08
1.089505e-06
-2.162682e-06
8.331844e-07
2.186498e-06
-6.112389e-06
1.184465e-05
-4.342332e-06
7.142689e-05
-1.305796e-05
-7.051690e-06
-9.657876e-06
-5.294210e-06
-9.852988e-06
8.137855e-07
-9.060933e-08
2.552890e-07
-1.226406e-05
-1.031591e-05
6.011873e-07
-1.031591e-05
-9.852990e-06
6.011872e-07
2.552889e-07
-1.226406e-05
-9.657876e-06
8.137854e-07
-5.294209e-06
-9.060945e-08
-7.051690e-06
-2.389522e-06
-6.208041e-07
-4.650519e-07
-6.420259e-07
-7.525210e-07
-8.189999e-07
4.857819e-07
6.857179e-07
-7.549653e-07
8.856539e-07
8.856542e-07
-7.525212e-07
6.857181e-07
-6.208058e-07
-8.189997e-07
-7.549652e-07
-6.420258e-07
4.857820e-07
-2.389522e-06
-4.650518e-07
-2.140538e-03
-6.039558e-04
-1.947880e-03
-4.861494e-04
-1.120930e-03
-9.002892e-04
-2.864094e-04
-5.458099e-03
-4.796930e-03
-1.514169e-03
-1.176690e-03
-3.683430e-04
-6.796489e-04
-2.527760e-03
-6.796489e-04
-1.514169e-03
-9.002892e-04
-2.527760e-03
-1.176690e-03
-4.796930e-03
-1.947880e-03
-2.864094e-04
-3.683430e-04
-4.861494e-04
-1.120930e-03
-2.140538e-03
-6.039558e-04
-5.458099e-03
-2.168384e-06
-9.976756e-07
-4.365078e-07
-3.266337e-06
-5.401566e-08
-6.478658e-06
2.187076e-06
7.023349e-07
-7.824061e-07
5.190159e-07
5.190160e-07
-6.478659e-06
-3.266337e-06
2.187076e-06
7.023351e-07
-2.168384e-06
-9.976767e-07
-5.401559e-08
-7.824060e-07
-4.365077e-07
2.532880e-06
4.642590e-06
-9.180344e-07
5.156558e-06
3.671817e-06
-5.485491e-05
-3.654662e-06
-5.485491e-05
-3.654661e-06
-9.180338e-07
4.642591e-06
5.156558e-06
3.671817e-06
2.532880e-06
1.015286e-06
-1.923611e-06
-6.021338e-06
2.480660e-05
4.951093e-07
-1.923611e-06
1.015287e-06
-1.030669e-04
2.868532e-04
1.345307e-03
1.740674e-05
-6.320949e-05
1.521300e-04
1.249036e-04
-2.335210e-05
1.740674e-05
-6.320949e-05
2.868532e-04
1.345307e-03
-1.030669e-04
1.129452e-04
4.905891e-05
2.058426e-03
-3.016134e-04
-1.482734e-05
-2.071018e-04
1.596910e-05
4.905891e-05
-1.482734e-05
1.129452e-04
7.309910e-03
-7.403581e-03
4.425351e-04
-6.601799e-04
-7.258497e-03
1.299438e-03
-1.073657e-04
-3.337247e-03
-6.572665e-04
-1.568047e-03
-6.572665e-04
1.299438e-03
-1.073657e-04
-1.568047e-03
-3.337247e-03
-6.601799e-04
-7.258497e-03
4.425351e-04
7.309910e-03
-7.403581e-03
-5.762707e-03
-1.104715e-03
-9.267058e-04
-3.871630e-04
-6.268189e-04
-7.049675e-04
-1.475072e-04
-1.751722e-04
-2.157907e-04
-2.564091e-04
-1.170596e-04
-1.170596e-04
-1.475072e-04
-3.871630e-04
-1.751722e-04
-2.157907e-04
-7.049675e-04
-1.104715e-03
-6.268189e-04
-2.564091e-04
-9.267058e-04
-5.762707e-03
1.307501e-04
4.811675e-05
8.053095e-05
3.078944e-04
3.184647e-03
1.780056e-04
1.779481e-03
3.031183e-05
8.053095e-05
4.811675e-05
3.078944e-04
3.184647e-03
1.307501e-04
8.795010e-06
4.163577e-05
6.977254e-05
2.059449e-05
-4.713594e-05
1.642445e-04
1.024533e-03
1.642445e-04
1.024533e-03
4.163577e-05
6.977254e-05
2.059449e-05
-4.713594e-05
8.795010e-06
-1.260648e-02
-9.857862e-03
-1.564801e-02
-1.196238e-02
-8.512687e-03
-7.008183e-03
-1.020221e-02
-8.193394e-03
-6.705908e-03
-7.850431e-03
-4.983671e-03
-5.767672e-03
-1.191862e-02
-7.866028e-03
-8.140345e-03
-5.717160e-03
-1.565072e-02
-9.935149e-03
-4.322346e-03
-6.005635e-03
-5.193298e-03
-3.601900e-03
-4.800148e-03
-4.800148e-03
-9.935149e-03
-8.140345e-03
-6.005635e-03
-5.193298e-03
-1.020221e-02
-8.193394e-03
-5.717160e-03
-3.601900e-03
-5.767672e-03
-1.191862e-02
-7.866028e-03
-1.196238e-02
-7.850431e-03
-1.565072e-02
-1.564801e-02
-4.322346e-03
-8.512687e-03
-7.008183e-03
-4.983671e-03
-8.527868e-05
-3.824638e-04
-1.607669e-04
-5.260829e-04
-1.381087e-04
-6.512474e-05
-2.167339e-04
-5.260829e-04
-2.167339e-04
-3.824638e-04
-1.381087e-04
-1.607669e-04
-6.512474e-05
-8.527868e-05
-1.482154e-02
-9.334281e-03
-1.478951e-02
-9.329008e-03
-1.482154e-02
-9.334281e-03
-4.013409e-03
-3.323386e-03
-6.071080e-03
-5.176616e-03
-2.633363e-03
-3.817306e-03
-2.324426e-03
-4.013409e-03
-3.323386e-03
-2.633363e-03
-4.737429e-03
-5.457740e-03
-4.742112e-03
-5.462688e-03
-2.999071e-03
-2.649575e-03
-2.824323e-03
-5.434538e-03
-5.457740e-03
-2.999071e-03
-9.322783e-03
-4.139948e-03
-4.742112e-03
-2.649575e-03
-4.737429e-03
-3.222012e-03
-3.660828e-03
-1.953814e-03
-2.072726e-03
-3.642586e-03
-2.191638e-03
-2.396871e-03
-2.548889e-03
-1.495877e-03
-2.700906e-03
-2.700906e-03
-3.642586e-03
-2.548889e-03
-3.660828e-03
-2.191638e-03
-1.495877e-03
-2.072726e-03
-2.396871e-03
-3.222012e-03
-1.953814e-03
-9.799954e-05
-1.213530e-04
-3.639603e-04
-4.345906e-04
-4.163816e-05
-9.799954e-05
-1.213530e-04
-6.816305e-06
-6.316713e-06
1.194725e-06
8.979562e-07
-1.368549e-06
-6.816305e-06
1.194725e-06
-1.895926e-03
-2.569578e-03
-1.158488e-03
-1.556151e-03
-1.394980e-03
-1.895926e-03
-1.158488e-03
-3.434600e-03
-2.858050e-03
-3.304457e-03
-2.985725e-03
-2.281501e-03
-2.418736e-03
-3.143320e-03
-2.555971e-03
-3.730669e-03
-1.393755e-03
-1.644675e-03
-1.440123e-03
-1.235572e-03
-1.486492e-03
-1.486492e-03
-3.730669e-03
-3.143320e-03
-1.644675e-03
-1.440123e-03
-3.304457e-03
-2.985725e-03
-2.555971e-03
-1.235572e-03
-2.418736e-03
-1.393755e-03
-3.434600e-03
-2.858050e-03
-2.281501e-03
-2.583796e-04
-3.409691e-04
-2.096541e-04
-1.723914e-04
3.951247e-06
-8.529442e-06
-2.289097e-06
-4.235586e-04
-3.409691e-04
3.951248e-06
-1.609285e-04
-2.096541e-04
-8.529442e-06
-2.583796e-04
-6.625517e-03
-4.140141e-03
-4.899468e-03
-3.240369e-03
-2.383466e-03
-1.876962e-03
-3.372405e-03
-2.612315e-03
-1.562285e-03
-3.662345e-03
-3.182674e-03
-2.276566e-03
-1.370457e-03
-1.852225e-03
-1.852225e-03
-3.662345e-03
-2.612315e-03
-3.182674e-03
-2.276566e-03
-4.899468e-03
-3.240369e-03
-1.562285e-03
-1.370457e-03
-1.876962e-03
-3.372405e-03
-4.140141e-03
-2.383466e-03
-6.625517e-03
2.482064e-03
4.759100e-03
1.918953e-03
6.294132e-03
1.098273e-02
2.482064e-03
4.759100e-03
2.418725e-03
6.604707e-04
8.441939e-03
-1.913694e-03
-1.097783e-03
-3.261083e-03
8.784064e-04
6.604707e-04
-1.097783e-03
2.418725e-03
-9.504868e-03
-1.387792e-02
-4.683551e-05
-1.234787e-02
-1.469859e-02
-2.003087e-03
-7.331039e-03
9.034962e-03
3.507033e-04
3.324865e-03
-8.212536e-03
-2.187703e-02
-8.375195e-03
-1.545555e-02
-3.534591e-03
-1.011515e-02
-1.163574e-02
-3.959339e-03
-3.959339e-03
3.324865e-03
-2.003087e-03
-3.534591e-03
-1.011515e-02
3.507033e-04
-1.234787e-02
-7.331039e-03
-1.163574e-02
-1.469859e-02
-4.683551e-05
-9.504868e-03
-1.387792e-02
9.034962e-03
-8.375195e-03
-1.545555e-02
-8.212536e-03
-2.187703e-02
-1.473956e-02
-1.144349e-02
-7.653443e-03
-1.162545e-02
-7.809140e-03
-6.430840e-03
-7.562188e-03
-5.127514e-03
-9.664661e-03
-6.027713e-03
-6.027713e-03
-7.562188e-03
-9.664661e-03
-1.162545e-02
-5.127514e-03
-7.809140e-03
-6.430840e-03
-1.144349e-02
-7.653443e-03
-6.876436e-04
-1.563886e-03
-2.775039e-04
-4.407299e-04
-2.543576e-04
-6.876436e-04
-2.775039e-04
-9.085628e-03
-1.283109e-02
-1.051712e-02
-1.618749e-02
-6.320381e-03
-8.508217e-03
-7.020797e-03
-1.004395e-02
-6.008475e-03
-9.465277e-03
-4.660406e-03
-4.318241e-03
-5.818855e-03
-5.502771e-03
-3.639747e-03
-3.639747e-03
-5.502771e-03
-6.008475e-03
-9.465277e-03
-4.318241e-03
-5.818855e-03
-7.020797e-03
-1.004395e-02
-1.051712e-02
-1.618749e-02
-4.660406e-03
-6.320381e-03
-8.508217e-03
1.437030e-02
1.487828e-02
7.875925e-03
2.197929e-02
2.177901e-02
1.267406e-02
1.135792e-02
1.487828e-02
7.875925e-03
1.461734e-02
1.972680e-02
1.461734e-02
2.197929e-02
1.437030e-02
-4.658638e-03
-4.509114e-03
-9.014050e-03
-8.757775e-03
-4.359591e-03
-6.262170e-03
-2.587388e-03
-4.509114e-03
-4.359591e-03
-4.658638e-03
-2.014166e-02
4.386364e-03
9.594030e-03
3.929118e-03
1.224928e-02
1.344689e-03
9.702378e-03
1.224928e-02
9.594030e-03
9.702378e-03
1.344689e-03
3.929118e-03
4.386364e-03
7.436937e-03
1.098956e-02
6.865534e-03
1.097348e-02
8.236308e-03
1.400095e-02
8.811787e-03
1.376152e-02
1.470870e-02
1.988721e-02
8.638432e-03
1.097348e-02
6.865534e-03
9.035679e-03
1.395222e-02
8.236308e-03
1.400095e-02
1.988721e-02
1.098956e-02
1.470870e-02
7.436937e-03
-3.667945e-03
-6.878251e-03
-7.753575e-03
-3.205993e-03
-5.297872e-03
-1.114113e-03
-2.603897e-03
-4.254173e-03
-4.549977e-03
-2.452647e-03
-2.452647e-03
-1.114113e-03
-3.205993e-03
-2.603897e-03
-4.254173e-03
-3.667945e-03
-6.878251e-03
-5.297872e-03
-4.549977e-03
-7.753575e-03
-6.740508e-03
-4.480109e-03
-3.866326e-03
-2.932504e-03
-2.932504e-03
-4.480109e-03
-3.866326e-03
-6.740508e-03
-3.126886e-03
-3.570148e-03
-4.699824e-03
-6.041460e-03
-2.479889e-03
-3.126886e-03
-3.570148e-03
1.608644e-03
-2.748385e-03
3.264123e-03
1.608644e-03
-1.692079e-03
2.246664e-03
-1.241871e-02
-3.178498e-03
-1.692079e-03
4.511488e-03
5.877774e-03
5.974212e-03
8.932619e-03
4.776305e-03
6.902394e-03
6.506306e-03
1.102776e-02
6.407375e-03
1.110813e-02
7.480973e-03
1.406114e-02
5.041122e-03
6.517613e-03
7.038401e-03
1.078459e-02
7.038401e-03
1.078459e-02
6.506306e-03
1.102776e-02
1.406114e-02
8.932619e-03
1.110813e-02
5.974212e-03
5.041122e-03
6.517613e-03
4.776305e-03
6.902394e-03
7.480973e-03
5.877774e-03
6.407375e-03
4.511488e-03
-2.198789e-02
-2.243510e-02
-2.309902e-02
-2.288411e-02
-2.326983e-02
-2.454423e-02
-2.449760e-02
-2.029309e-02
-2.108759e-02
-2.117568e-02
-2.212847e-02
-2.145754e-02
-2.309902e-02
-2.108759e-02
-2.033802e-02
-2.243510e-02
-2.193463e-02
-2.214540e-02
-2.288411e-02
-2.326983e-02
-2.036323e-02
-2.117568e-02
-2.198789e-02
-2.029309e-02
-1.748943e-02
-1.811452e-02
-1.818173e-02
-1.882371e-02
-1.478055e-02
-1.480552e-02
-1.557418e-02
-1.744061e-02
-1.811452e-02
-1.478055e-02
-1.752012e-02
-1.818173e-02
-1.480552e-02
-1.748943e-02
-4.695817e-03
-4.746074e-03
-2.659814e-03
-2.521640e-03
-3.799318e-03
-3.585862e-03
-2.044209e-03
-3.585862e-03
-4.746074e-03
-2.044209e-03
-2.521640e-03
-3.799318e-03
-4.695817e-03
-2.659814e-03
-1.908810e-02
-1.959869e-02
-1.964765e-02
-2.029171e-02
-1.821017e-02
-1.888220e-02
-1.925686e-02
-1.803743e-02
-1.866629e-02
-1.637368e-02
-1.582152e-02
-1.690361e-02
-1.564937e-02
-1.555314e-02
-1.555314e-02
-1.866629e-02
-1.925686e-02
-1.582152e-02
-1.690361e-02
-1.964765e-02
-2.029171e-02
-1.803743e-02
-1.564937e-02
-1.888220e-02
-1.637368e-02
-1.908810e-02
-1.959869e-02
-1.821017e-02
-1.450929e-02
-1.503805e-02
-1.713675e-02
-1.759014e-02
-1.412724e-02
-1.653395e-02
-1.271879e-02
-1.450929e-02
-1.503805e-02
-1.412724e-02
-1.591172e-02
-1.647495e-02
-1.337594e-02
-1.337301e-02
-1.586949e-02
-1.337008e-02
-1.380519e-02
-1.379493e-02
-1.194050e-02
-1.378467e-02
-1.378467e-02
-1.586949e-02
-1.379493e-02
-1.647495e-02
-1.337008e-02
-1.194050e-02
-1.337301e-02
-1.380519e-02
-1.591172e-02
-1.337594e-02
-3.105901e-03
-4.100710e-03
-1.852212e-03
-2.256013e-03
-2.412484e-03
-3.105901e-03
-1.852212e-03
-1.700979e-02
-1.505066e-02
-1.818068e-02
-1.619370e-02
-1.309152e-02
-1.315751e-02
-1.266070e-02
-1.291136e-02
-1.153447e-02
-1.428825e-02
-1.765633e-02
-1.569405e-02
-1.322349e-02
-1.316202e-02
-1.316202e-02
-1.428825e-02
-1.291136e-02
-1.765633e-02
-1.569405e-02
-1.818068e-02
-1.619370e-02
-1.153447e-02
-1.322349e-02
-1.315751e-02
-1.266070e-02
-1.505066e-02
-1.309152e-02
-1.700979e-02
5.470871e-03
4.124947e-03
5.114985e-03
3.856930e-03
8.901313e-03
8.212904e-03
8.958686e-03
8.633886e-03
2.598874e-03
5.044467e-03
5.237399e-03
3.588912e-03
7.189006e-03
5.430332e-03
7.870916e-03
7.870916e-03
7.189006e-03
8.958686e-03
8.633886e-03
5.430332e-03
5.237399e-03
3.588912e-03
3.856930e-03
2.598874e-03
5.114985e-03
8.901313e-03
8.212904e-03
5.044467e-03
4.124947e-03
5.470871e-03
1.196293e-03
3.751497e-03
-2.225501e-04
-3.030469e-03
8.426243e-04
-2.613856e-03
-1.260305e-03
6.484485e-03
2.056976e-03
-5.628201e-04
-2.255543e-03
-2.503073e-04
-2.116116e-03
-1.569148e-03
5.014517e-04
5.014517e-04
-1.569148e-03
2.056976e-03
-1.260305e-03
-2.503073e-04
-2.116116e-03
8.426243e-04
-2.613856e-03
6.484485e-03
3.751497e-03
-5.628201e-04
-2.255543e-03
-2.225501e-04
-3.030469e-03
-1.251868e-02
-1.463967e-02
-1.091012e-02
-1.214303e-02
-1.123217e-02
-1.251868e-02
-1.091012e-02
-3.480523e-03
-3.578275e-03
-3.581727e-03
-3.713985e-03
-3.676026e-03
-3.415788e-03
-7.257090e-04
-7.682382e-04
-1.704061e-03
1.675847e-04
-3.682931e-03
-3.419240e-03
-3.155549e-03
-8.107674e-04
-8.107674e-04
1.675847e-04
-7.682382e-04
-3.682931e-03
-3.419240e-03
-3.581727e-03
-3.713985e-03
-1.704061e-03
-3.155549e-03
-3.415788e-03
-7.257090e-04
-3.578275e-03
-3.676026e-03
-3.480523e-03
-1.711245e-02
-1.853230e-02
-1.494890e-02
-1.661599e-02
-1.593537e-02
-1.352323e-02
-1.219934e-02
-1.316716e-02
-1.123151e-02
-1.278535e-02
-1.321429e-02
-1.364323e-02
-1.087544e-02
-1.087544e-02
-1.123151e-02
-1.219934e-02
-1.278535e-02
-1.321429e-02
-1.494890e-02
-1.661599e-02
-1.316716e-02
-1.364323e-02
-1.593537e-02
-1.352323e-02
-1.853230e-02
-1.711245e-02
-7.048515e-04
7.351051e-04
3.084705e-05
-3.575078e-04
3.259834e-04
-4.464094e-04
-1.035176e-04
-8.313819e-05
-1.363951e-04
-3.034088e-04
-1.692725e-04
6.211198e-04
-1.692725e-04
6.211198e-04
-3.034088e-04
-8.313819e-05
-1.363951e-04
3.259834e-04
-4.464094e-04
-1.035176e-04
3.084705e-05
-3.575078e-04
7.351051e-04
-1.443795e-02
-1.200757e-02
-1.190611e-02
-1.064505e-02
-1.221744e-02
-1.079164e-02
-1.065020e-02
-1.065020e-02
-1.190611e-02
-1.221744e-02
-1.443795e-02
-1.064505e-02
-1.079164e-02
-1.200757e-02
-2.646855e-03
-3.040727e-03
-2.437692e-03
-3.218198e-03
-2.989253e-03
-2.449325e-03
-1.421049e-03
-1.255140e-03
-1.449908e-03
-1.478766e-03
-1.478766e-03
-2.449325e-03
-2.989253e-03
-1.255140e-03
-1.449908e-03
-2.437692e-03
-3.218198e-03
-1.421049e-03
-2.646855e-03
-3.040727e-03
-1.311572e-02
-1.315210e-02
-1.278807e-02
-1.344908e-02
-1.292511e-02
-1.285902e-02
-1.262668e-02
-1.279294e-02
-1.246041e-02
-1.012308e-02
-9.754612e-03
-9.911645e-03
-1.006868e-02
-9.700213e-03
-9.700213e-03
-1.246041e-02
-1.262668e-02
-9.754612e-03
-9.911645e-03
-1.278807e-02
-1.344908e-02
-1.279294e-02
-1.006868e-02
-1.285902e-02
-1.012308e-02
-1.311572e-02
-1.315210e-02
-1.292511e-02
-1.463220e-02
-1.741408e-02
-1.696436e-02
-1.910503e-02
-1.169139e-02
-1.260731e-02
-1.092637e-02
-1.092637e-02
-1.260731e-02
-1.696436e-02
-1.910503e-02
-1.169139e-02
-1.741408e-02
-1.463220e-02
-1.335230e-02
-1.146791e-02
-1.630390e-02
-9.801372e-03
-1.215533e-02
-1.063464e-02
-1.494897e-02
-1.843565e-02
-1.630390e-02
-1.146791e-02
-1.095836e-02
-9.801372e-03
-1.215533e-02
-1.335230e-02
1.746271e-03
2.429500e-04
1.362507e-03
4.261282e-04
2.370171e-03
3.345391e-04
2.119104e-03
9.787432e-04
1.362507e-03
2.429500e-04
2.646551e-03
4.261282e-04
2.370171e-03
1.746271e-03
4.327759e-03
2.833355e-03
3.974170e-03
5.310792e-03
7.348197e-03
4.849445e-03
7.360382e-03
3.620582e-03
6.129507e-03
4.388098e-03
4.388098e-03
6.129507e-03
4.849445e-03
7.360382e-03
3.620582e-03
3.974170e-03
2.833355e-03
5.310792e-03
7.348197e-03
4.327759e-03
-1.207791e-02
-1.205454e-02
-1.206858e-02
-1.240889e-02
-9.328532e-03
-9.331645e-03
-9.330088e-03
-1.203117e-02
-1.205454e-02
-9.328532e-03
-1.205926e-02
-1.206858e-02
-9.331645e-03
-1.207791e-02
-6.338358e-04
-1.956582e-03
-7.458229e-04
-2.633259e-03
-1.458146e-03
-6.338358e-04
-1.956582e-03
-1.066965e-02
-1.061462e-02