# vtk DataFile Version 2.0

ASCII

DATASET UNSTRUCTURED_GRID
POINTS 74 float
-1.000000e+02 -1.000000e+02 -1.000000e+02
0.000000e+00 -1.000000e+02 -1.000000e+02
-1.000000e+02 0.000000e+00 -1.000000e+02
0.000000e+00 0.000000e+00 -1.000000e+02
-1.000000e+02 -1.000000e+02 0.000000e+00
0.000000e+00 -1.000000e+02 0.000000e+00
-1.000000e+02 0.000000e+00 0.000000e+00
0.000000e+00 0.000000e+00 0.000000e+00
1.000000e+02 -1.000000e+02 -1.000000e+02
1.000000e+02 0.000000e+00 -1.000000e+02
1.000000e+02 -1.000000e+02 0.000000e+00
1.000000e+02 0.000000e+00 0.000000e+00
-1.000000e+02 1.000000e+02 -1.000000e+02
0.000000e+00 1.000000e+02 -1.000000e+02
-1.000000e+02 1.000000e+02 0.000000e+00
0.000000e+00 1.000000e+02 0.000000e+00
-1.000000e+02 -1.000000e+02 1.000000e+02
0.000000e+00 -1.000000e+02 1.000000e+02
-1.000000e+02 0.000000e+00 1.000000e+02
0.000000e+00 0.000000e+00 1.000000e+02
-1.000000e+02 1.000000e+02 1.000000e+02
0.000000e+00 1.000000e+02 1.000000e+02
5.000000e+01 0.000000e+00 0.000000e+00
0.000000e+00 5.000000e+01 0.000000e+00
5.000000e+01 5.000000e+01 0.000000e+00
0.000000e+00 0.000000e+00 5.000000e+01
5.000000e+01 0.000000e+00 5.000000e+01
0.000000e+00 5.000000e+01 5.000000e+01
5.000000e+01 5.000000e+01 5.000000e+01
1.000000e+02 5.000000e+01 0.000000e+00
1.000000e+02 0.000000e+00 5.000000e+01
1.000000e+02 5.000000e+01 5.000000e+01
5.000000e+01 1.000000e+02 0.000000e+00
1.000000e+02 1.000000e+02 0.000000e+00
5.000000e+01 1.000000e+02 5.000000e+01
1.000000e+02 1.000000e+02 5.000000e+01
0.000000e+00 1.000000e+02 5.000000e+01
5.000000e+01 0.000000e+00 1.000000e+02
0.000000e+00 5.000000e+01 1.000000e+02
5.000000e+01 5.000000e+01 1.000000e+02
1.000000e+02 0.000000e+00 1.000000e+02
1.000000e+02 5.000000e+01 1.000000e+02
5.000000e+01 1.000000e+02 1.000000e+02
1.000000e+02 1.000000e+02 1.000000e+02
5.000000e+01 -1.000000e+02 0.000000e+00
0.000000e+00 -5.000000e+01 0.000000e+00
5.000000e+01 -5.000000e+01 0.000000e+00
0.000000e+00 -1.000000e+02 5.000000e+01
5.000000e+01 -1.000000e+02 5.000000e+01
0.000000e+00 -5.000000e+01 5.000000e+01
5.000000e+01 -5.000000e+01 5.000000e+01
1.000000e+02 -5.000000e+01 0.000000e+00
1.000000e+02 -1.000000e+02 5.000000e+01
1.000000e+02 -5.000000e+01 5.000000e+01
5.000000e+01 -1.000000e+02 1.000000e+02
0.000000e+00 -5.000000e+01 1.000000e+02
5.000000e+01 -5.000000e+01 1.000000e+02
1.000000e+02 -1.000000e+02 1.000000e+02
1.000000e+02 -5.000000e+01 1.000000e+02
5.000000e+01 0.000000e+00 -1.000000e+02
0.000000e+00 5.000000e+01 -1.000000e+02
5.000000e+01 5.000000e+01 -1.000000e+02
0.000000e+00 0.000000e+00 -5.000000e+01
5.000000e+01 0.000000e+00 -5.000000e+01
0.000000e+00 5.000000e+01 -5.000000e+01
5.000000e+01 5.000000e+01 -5.000000e+01
1.000000e+02 5.000000e+01 -1.000000e+02
1.000000e+02 0.000000e+00 -5.000000e+01
1.000000e+02 5.000000e+01 -5.000000e+01
5.000000e+01 1.000000e+02 -1.000000e+02
1.000000e+02 1.000000e+02 -1.000000e+02
5.000000e+01 1.000000e+02 -5.000000e+01
1.000000e+02 1.000000e+02 -5.000000e+01
0.000000e+00 1.000000e+02 -5.000000e+01

CELLS 29 261
8 0 1 3 2 4 5 7 6
8 1 8 9 3 5 10 11 7
8 2 3 13 12 6 7 15 14
8 4 5 7 6 16 17 19 18
8 6 7 15 14 18 19 21 20
8 7 22 24 23 25 26 28 27
8 22 11 29 24 26 30 31 28
8 24 29 33 32 28 31 35 34
8 23 24 32 15 27 28 34 36
8 25 26 28 27 19 37 39 38
8 26 30 31 28 37 40 41 39
8 28 31 35 34 39 41 43 42
8 27 28 34 36 38 39 42 21
8 5 44 46 45 47 48 50 49
8 44 10 51 46 48 52 53 50
8 46 51 11 22 50 53 30 26
8 45 46 22 7 49 50 26 25
8 47 48 50 49 17 54 56 55
8 48 52 53 50 54 57 58 56
8 50 53 30 26 56 58 40 37
8 49 50 26 25 55 56 37 19
8 3 59 61 60 62 63 65 64
8 59 9 66 61 63 67 68 65
8 61 66 70 69 65 68 72 71
8 60 61 69 13 64 65 71 73
8 62 63 65 64 7 22 24 23
8 63 67 68 65 22 11 29 24
8 65 68 72 71 24 29 33 32
8 64 65 71 73 23 24 32 15

CELL_TYPES 29
12
12
12
12
12
12
12
12
12
12
12
12
12
12
12
12
12
12
12
12
12
12
12
12
12
12
12
12
12

POINT_DATA 74
SCALARS Solution float 1
LOOKUP_TABLE default
0.000000e+00
0.000000e+00
0.000000e+00
1.084202e-19
0.000000e+00
0.000000e+00
0.000000e+00
4.336809e-19
0.000000e+00
0.000000e+00
0.000000e+00
0.000000e+00
0.000000e+00
0.000000e+00
0.000000e+00
5.421011e-20
0.000000e+00
0.000000e+00
0.000000e+00
2.710505e-20
0.000000e+00
0.000000e+00
1.626303e-19
1.626303e-19
2.137800e-03
1.897354e-19
-2.137800e-03
1.125656e-19
1.762722e-17
0.000000e+00
0.000000e+00
0.000000e+00
0.000000e+00
0.000000e+00
0.000000e+00
0.000000e+00
0.000000e+00
0.000000e+00
0.000000e+00
0.000000e+00
0.000000e+00
0.000000e+00
0.000000e+00
0.000000e+00
0.000000e+00
6.505213e-19
2.168404e-19
0.000000e+00
0.000000e+00
1.897354e-19
3.616833e-03
5.421011e-20
0.000000e+00
0.000000e+00
0.000000e+00
2.710505e-20
0.000000e+00
0.000000e+00
0.000000e+00
1.084202e-19
0.000000e+00
0.000000e+00
4.336809e-19
1.626303e-19
1.626303e-19
-3.616833e-03
0.000000e+00
0.000000e+00
0.000000e+00
0.000000e+00
0.000000e+00
0.000000e+00
0.000000e+00
5.421011e-20
