# vtk DataFile Version 2.0

ASCII

DATASET UNSTRUCTURED_GRID
POINTS 117 float
-1.000000e+00 -1.000000e+00 -1.000000e+00
-5.000000e-01 -1.000000e+00 -1.000000e+00
-1.000000e+00 -5.000000e-01 -1.000000e+00
-5.000000e-01 -5.000000e-01 -1.000000e+00
-1.000000e+00 -1.000000e+00 -5.000000e-01
-5.000000e-01 -1.000000e+00 -5.000000e-01
-1.000000e+00 -5.000000e-01 -5.000000e-01
-5.000000e-01 -5.000000e-01 -5.000000e-01
0.000000e+00 -1.000000e+00 -1.000000e+00
0.000000e+00 -5.000000e-01 -1.000000e+00
0.000000e+00 -1.000000e+00 -5.000000e-01
0.000000e+00 -5.000000e-01 -5.000000e-01
-5.000000e-01 0.000000e+00 -1.000000e+00
0.000000e+00 0.000000e+00 -1.000000e+00
-5.000000e-01 0.000000e+00 -5.000000e-01
0.000000e+00 0.000000e+00 -5.000000e-01
-1.000000e+00 0.000000e+00 -1.000000e+00
-1.000000e+00 0.000000e+00 -5.000000e-01
-1.000000e+00 -1.000000e+00 0.000000e+00
-5.000000e-01 -1.000000e+00 0.000000e+00
-1.000000e+00 -5.000000e-01 0.000000e+00
-5.000000e-01 -5.000000e-01 0.000000e+00
0.000000e+00 -1.000000e+00 0.000000e+00
0.000000e+00 -5.000000e-01 0.000000e+00
-5.000000e-01 0.000000e+00 0.000000e+00
0.000000e+00 0.000000e+00 0.000000e+00
-1.000000e+00 0.000000e+00 0.000000e+00
5.000000e-01 -1.000000e+00 -1.000000e+00
5.000000e-01 -5.000000e-01 -1.000000e+00
5.000000e-01 -1.000000e+00 -5.000000e-01
5.000000e-01 -5.000000e-01 -5.000000e-01
1.000000e+00 -1.000000e+00 -1.000000e+00
1.000000e+00 -5.000000e-01 -1.000000e+00
1.000000e+00 -1.000000e+00 -5.000000e-01
1.000000e+00 -5.000000e-01 -5.000000e-01
5.000000e-01 0.000000e+00 -1.000000e+00
1.000000e+00 0.000000e+00 -1.000000e+00
5.000000e-01 0.000000e+00 -5.000000e-01
1.000000e+00 0.000000e+00 -5.000000e-01
5.000000e-01 -1.000000e+00 0.000000e+00
5.000000e-01 -5.000000e-01 0.000000e+00
1.000000e+00 -1.000000e+00 0.000000e+00
1.000000e+00 -5.000000e-01 0.000000e+00
5.000000e-01 0.000000e+00 0.000000e+00
1.000000e+00 0.000000e+00 0.000000e+00
-1.000000e+00 5.000000e-01 -1.000000e+00
-5.000000e-01 5.000000e-01 -1.000000e+00
-1.000000e+00 5.000000e-01 -5.000000e-01
-5.000000e-01 5.000000e-01 -5.000000e-01
0.000000e+00 5.000000e-01 -1.000000e+00
0.000000e+00 5.000000e-01 -5.000000e-01
-5.000000e-01 1.000000e+00 -1.000000e+00
0.000000e+00 1.000000e+00 -1.000000e+00
-5.000000e-01 1.000000e+00 -5.000000e-01
0.000000e+00 1.000000e+00 -5.000000e-01
-1.000000e+00 1.000000e+00 -1.000000e+00
-1.000000e+00 1.000000e+00 -5.000000e-01
-1.000000e+00 5.000000e-01 0.000000e+00
-5.000000e-01 5.000000e-01 0.000000e+00
0.000000e+00 5.000000e-01 0.000000e+00
-5.000000e-01 1.000000e+00 0.000000e+00
0.000000e+00 1.000000e+00 0.000000e+00
-1.000000e+00 1.000000e+00 0.000000e+00
5.000000e-01 5.000000e-01 -1.000000e+00
5.000000e-01 5.000000e-01 -5.000000e-01
1.000000e+00 5.000000e-01 -1.000000e+00
1.000000e+00 5.000000e-01 -5.000000e-01
5.000000e-01 1.000000e+00 -1.000000e+00
1.000000e+00 1.000000e+00 -1.000000e+00
5.000000e-01 1.000000e+00 -5.000000e-01
1.000000e+00 1.000000e+00 -5.000000e-01
5.000000e-01 5.000000e-01 0.000000e+00
1.000000e+00 5.000000e-01 0.000000e+00
5.000000e-01 1.000000e+00 0.000000e+00
1.000000e+00 1.000000e+00 0.000000e+00
-1.000000e+00 -1.000000e+00 5.000000e-01
-5.000000e-01 -1.000000e+00 5.000000e-01
-1.000000e+00 -5.000000e-01 5.000000e-01
-5.000000e-01 -5.000000e-01 5.000000e-01
0.000000e+00 -1.000000e+00 5.000000e-01
0.000000e+00 -5.000000e-01 5.000000e-01
-5.000000e-01 0.000000e+00 5.000000e-01
0.000000e+00 0.000000e+00 5.000000e-01
-1.000000e+00 0.000000e+00 5.000000e-01
-1.000000e+00 -1.000000e+00 1.000000e+00
-5.000000e-01 -1.000000e+00 1.000000e+00
-1.000000e+00 -5.000000e-01 1.000000e+00
-5.000000e-01 -5.000000e-01 1.000000e+00
0.000000e+00 -1.000000e+00 1.000000e+00
0.000000e+00 -5.000000e-01 1.000000e+00
-5.000000e-01 0.000000e+00 1.000000e+00
0.000000e+00 0.000000e+00 1.000000e+00
-1.000000e+00 0.000000e+00 1.000000e+00
-1.000000e+00 5.000000e-01 5.000000e-01
-5.000000e-01 5.000000e-01 5.000000e-01
0.000000e+00 5.000000e-01 5.000000e-01
-5.000000e-01 1.000000e+00 5.000000e-01
0.000000e+00 1.000000e+00 5.000000e-01
-1.000000e+00 1.000000e+00 5.000000e-01
-1.000000e+00 5.000000e-01 1.000000e+00
-5.000000e-01 5.000000e-01 1.000000e+00
0.000000e+00 5.000000e-01 1.000000e+00
-5.000000e-01 1.000000e+00 1.000000e+00
0.000000e+00 1.000000e+00 1.000000e+00
-1.000000e+00 1.000000e+00 1.000000e+00
5.000000e-01 0.000000e+00 5.000000e-01
5.000000e-01 5.000000e-01 5.000000e-01
1.000000e+00 0.000000e+00 5.000000e-01
1.000000e+00 5.000000e-01 5.000000e-01
5.000000e-01 1.000000e+00 5.000000e-01
1.000000e+00 1.000000e+00 5.000000e-01
5.000000e-01 0.000000e+00 1.000000e+00
5.000000e-01 5.000000e-01 1.000000e+00
1.000000e+00 0.000000e+00 1.000000e+00
1.000000e+00 5.000000e-01 1.000000e+00
5.000000e-01 1.000000e+00 1.000000e+00
1.000000e+00 1.000000e+00 1.000000e+00

CELLS 56 504
8 0 1 3 2 4 5 7 6
8 1 8 9 3 5 10 11 7
8 3 9 13 12 7 11 15 14
8 2 3 12 16 6 7 14 17
8 4 5 7 6 18 19 21 20
8 5 10 11 7 19 22 23 21
8 7 11 15 14 21 23 25 24
8 6 7 14 17 20 21 24 26
8 8 27 28 9 10 29 30 11
8 27 31 32 28 29 33 34 30
8 28 32 36 35 30 34 38 37
8 9 28 35 13 11 30 37 15
8 10 29 30 11 22 39 40 23
8 29 33 34 30 39 41 42 40
8 30 34 38 37 40 42 44 43
8 11 30 37 15 23 40 43 25
8 16 12 46 45 17 14 48 47
8 12 13 49 46 14 15 50 48
8 46 49 52 51 48 50 54 53
8 45 46 51 55 47 48 53 56
8 17 14 48 47 26 24 58 57
8 14 15 50 48 24 25 59 58
8 48 50 54 53 58 59 61 60
8 47 48 53 56 57 58 60 62
8 13 35 63 49 15 37 64 50
8 35 36 65 63 37 38 66 64
8 63 65 68 67 64 66 70 69
8 49 63 67 52 50 64 69 54
8 15 37 64 50 25 43 71 59
8 37 38 66 64 43 44 72 71
8 64 66 70 69 71 72 74 73
8 50 64 69 54 59 71 73 61
8 18 19 21 20 75 76 78 77
8 19 22 23 21 76 79 80 78
8 21 23 25 24 78 80 82 81
8 20 21 24 26 77 78 81 83
8 75 76 78 77 84 85 87 86
8 76 79 80 78 85 88 89 87
8 78 80 82 81 87 89 91 90
8 77 78 81 83 86 87 90 92
8 26 24 58 57 83 81 94 93
8 24 25 59 58 81 82 95 94
8 58 59 61 60 94 95 97 96
8 57 58 60 62 93 94 96 98
8 83 81 94 93 92 90 100 99
8 81 82 95 94 90 91 101 100
8 94 95 97 96 100 101 103 102
8 93 94 96 98 99 100 102 104
8 25 43 71 59 82 105 106 95
8 43 44 72 71 105 107 108 106
8 71 72 74 73 106 108 110 109
8 59 71 73 61 95 106 109 97
8 82 105 106 95 91 111 112 101
8 105 107 108 106 111 113 114 112
8 106 108 110 109 112 114 116 115
8 95 106 109 97 101 112 115 103

CELL_TYPES 56
12
12
12
12
12
12
12
12
12
12
12
12
12
12
12
12
12
12
12
12
12
12
12
12
12
12
12
12
12
12
12
12
12
12
12
12
12
12
12
12
12
12
12
12
12
12
12
12
12
12
12
12
12
12
12
12

POINT_DATA 117
SCALARS sln float 1
LOOKUP_TABLE default
1.316074e+00
1.224745e+00
1.224745e+00
1.106682e+00
1.224745e+00
1.106682e+00
1.106682e+00
9.143289e-01
1.189207e+00
1.057371e+00
1.057371e+00
8.094074e-01
1.057371e+00
1.000000e+00
8.073081e-01
6.995559e-01
1.189207e+00
1.057371e+00
1.189207e+00
1.057371e+00
1.057371e+00
8.094074e-01
1.000000e+00
7.071068e-01
6.995559e-01
0.000000e+00
1.000000e+00
1.224745e+00
1.106682e+00
1.106682e+00
9.148009e-01
1.316074e+00
1.224745e+00
1.224745e+00
1.106682e+00
1.057371e+00
1.189207e+00
8.094074e-01
1.057371e+00
1.057371e+00
8.408964e-01
1.189207e+00
1.057371e+00
7.071068e-01
1.000000e+00
1.224745e+00
1.106682e+00
1.106682e+00
9.138570e-01
1.057371e+00
8.073081e-01
1.224745e+00
1.189207e+00
1.106682e+00
1.057371e+00
1.316074e+00
1.224745e+00
1.057371e+00
8.073081e-01
6.995559e-01
1.057371e+00
1.000000e+00
1.189207e+00
1.106682e+00
9.143289e-01
1.224745e+00
1.106682e+00
1.224745e+00
1.316074e+00
1.106682e+00
1.224745e+00
8.094074e-01
1.057371e+00
1.057371e+00
1.189207e+00
1.224745e+00
1.106682e+00
1.106682e+00
9.148009e-01
1.057371e+00
8.408964e-01
8.094074e-01
7.071068e-01
1.057371e+00
1.316074e+00
1.224745e+00
1.224745e+00
1.106682e+00
1.189207e+00
1.057371e+00
1.057371e+00
1.000000e+00
1.189207e+00
1.106682e+00
9.143289e-01
8.094074e-01
1.106682e+00
1.057371e+00
1.224745e+00
1.224745e+00
1.106682e+00
1.057371e+00
1.224745e+00
1.189207e+00
1.316074e+00
8.408964e-01
9.148009e-01
1.057371e+00
1.106682e+00
1.106682e+00
1.224745e+00
1.057371e+00
1.106682e+00
1.189207e+00
1.224745e+00
1.224745e+00
1.316074e+00
